 vasp.5.4.4.18Apr17-6-g9f103f2a35 (build Apr 28 2017 10:53:45) complex          
  
 executed on             LinuxIFC date 2020.02.16  21:33:40
 running on   24 total cores
 distrk:  each k-point on   24 cores,    1 groups
 distr:  one band on NCORES_PER_BAND=   1 cores,   24 groups


--------------------------------------------------------------------------------------------------------


 INCAR:
 POTCAR:    PAW_PBE Ir 06Sep2000                  
 POTCAR:    PAW_PBE Pt 04Feb2005                  
 POTCAR:    PAW_PBE Au 04Oct2007                  
 POTCAR:    PAW_PBE H 15Jun2001                   

 ----------------------------------------------------------------------------- 
|                                                                             |
|           W    W    AA    RRRRR   N    N  II  N    N   GGGG   !!!           |
|           W    W   A  A   R    R  NN   N  II  NN   N  G    G  !!!           |
|           W    W  A    A  R    R  N N  N  II  N N  N  G       !!!           |
|           W WW W  AAAAAA  RRRRR   N  N N  II  N  N N  G  GGG   !            |
|           WW  WW  A    A  R   R   N   NN  II  N   NN  G    G                |
|           W    W  A    A  R    R  N    N  II  N    N   GGGG   !!!           |
|                                                                             |
|      For optimal performance we recommend to set                            |
|        NCORE= 4 - approx SQRT( number of cores)                             |
|      NCORE specifies how many cores store one orbital (NPAR=cpu/NCORE).     |
|      This setting can  greatly improve the performance of VASP for DFT.     |
|      The default,   NCORE=1            might be grossly inefficient         |
|      on modern multi-core architectures or massively parallel machines.     |
|      Do your own testing !!!!                                               |
|      Unfortunately you need to use the default for GW and RPA calculations. |
|      (for HF NCORE is supported but not extensively tested yet)             |
|                                                                             |
 ----------------------------------------------------------------------------- 

 POTCAR:    PAW_PBE Ir 06Sep2000                  
   SHA256 =  7c6af8d4d487b237782eb51e6f62977b27a1da78c3c96acd1cebefd6c308f120 Ir
   COPYR  = (c) Copyright 06Sep2000 Georg Kresse                                
   COPYR  = This file is part of the software VASP. Any use, copying, and all ot
   COPYR  = If you do not have a valid VASP license, you may not use, copy or di
   VRHFIN =Ir: s1d8                                                             
   LEXCH  = PE                                                                  
   EATOM  =   560.1833 eV,   41.1723 Ry                                         
                                                                                
   TITEL  = PAW_PBE Ir 06Sep2000                                                
   LULTRA =        F    use ultrasoft PP ?                                      
   IUNSCR =        1    unscreen: 0-lin 1-nonlin 2-no                           
   RPACOR =    2.250    partial core radius                                     
   POMASS =  192.220; ZVAL   =    9.000    mass and valenz                      
   RCORE  =    2.600    outmost cutoff radius                                   
   RWIGS  =    2.690; RWIGS  =    1.423    wigner-seitz radius (au A)           
   ENMAX  =  210.864; ENMIN  =  158.148 eV                                      
   RCLOC  =    1.857    cutoff for local pot                                    
   LCOR   =        T    correct aug charges                                     
   LPAW   =        T    paw PP                                                  
   EAUG   =  318.962                                                            
   DEXC   =    0.000                                                            
   RMAX   =    2.667    core radius for proj-oper                               
   RAUG   =    1.300    factor for augmentation sphere                          
   RDEP   =    2.748    radius for radial grids                                 
   RDEPT  =    2.300    core radius for aug-charge                              
                                                                                
   Atomic configuration                                                         
   16 entries                                                                   
     n  l   j            E        occ.                                          
     1  0  0.50    -76100.0449   2.0000                                         
     2  0  0.50    -13308.1683   2.0000                                         
     2  1  1.50    -11558.0021   6.0000                                         
     3  0  0.50     -3110.7274   2.0000                                         
     3  1  1.50     -2599.2109   6.0000                                         
     3  2  2.50     -2037.1515  10.0000                                         
     4  0  0.50      -661.6001   2.0000                                         
     4  1  1.50      -493.8981   6.0000                                         
     4  2  2.50      -288.1909  10.0000                                         
     4  3  3.50       -59.5718  14.0000                                         
     5  0  0.50       -95.3879   2.0000                                         
     5  1  1.50       -52.2747   6.0000                                         
     5  2  2.50        -5.4180   8.0000                                         
     6  0  0.50        -5.5479   1.0000                                         
     6  1  1.50        -6.8029   0.0000                                         
     5  3  2.50        -1.3606   0.0000                                         
   Description                                                                  
     l       E           TYP  RCUT    TYP  RCUT                                 
     2     -5.4179967     23  2.600                                             
     2     -6.7785793     23  2.600                                             
     0     -5.5478636     23  2.600                                             
     0      2.2542272     23  2.600                                             
     1     -2.7211652     23  2.600                                             
     1     20.4087390     23  2.600                                             
  local pseudopotential read in
  partial core-charges read in
  partial kinetic energy density read in
  atomic valenz-charges read in
  non local Contribution for L=           2  read in
    real space projection operators read in
  non local Contribution for L=           2  read in
    real space projection operators read in
  non local Contribution for L=           0  read in
    real space projection operators read in
  non local Contribution for L=           0  read in
    real space projection operators read in
  non local Contribution for L=           1  read in
    real space projection operators read in
  non local Contribution for L=           1  read in
    real space projection operators read in
    PAW grid and wavefunctions read in
 
   number of l-projection  operators is LMAX  =           6
   number of lm-projection operators is LMMAX =          18
 
 POTCAR:    PAW_PBE Pt 04Feb2005                  
   SHA256 =  3ed90460adef76debcff1cfb73ee1349b515b1a3db03439735b44de3a8db7dc8 Pt
   COPYR  = (c) Copyright 04Feb2005 Georg Kresse                                
   COPYR  = This file is part of the software VASP. Any use, copying, and all ot
   COPYR  = If you do not have a valid VASP license, you may not use, copy or di
   VRHFIN =Pt: s1d9                                                             
   LEXCH  = PE                                                                  
   EATOM  =   729.1176 eV,   53.5886 Ry                                         
                                                                                
   TITEL  = PAW_PBE Pt 04Feb2005                                                
   LULTRA =        F    use ultrasoft PP ?                                      
   IUNSCR =        1    unscreen: 0-lin 1-nonlin 2-no                           
   RPACOR =    2.330    partial core radius                                     
   POMASS =  195.080; ZVAL   =   10.000    mass and valenz                      
   RCORE  =    2.600    outmost cutoff radius                                   
   RWIGS  =    2.750; RWIGS  =    1.455    wigner-seitz radius (au A)           
   ENMAX  =  230.283; ENMIN  =  172.712 eV                                      
   ICORE  =        3    local potential                                         
   LCOR   =        T    correct aug charges                                     
   LPAW   =        T    paw PP                                                  
   EAUG   =  358.966                                                            
   DEXC   =    0.000                                                            
   RMAX   =    2.658    core radius for proj-oper                               
   RAUG   =    1.300    factor for augmentation sphere                          
   RDEP   =    2.761    radius for radial grids                                 
   RDEPT  =    2.203    core radius for aug-charge                              
                                                                                
   Atomic configuration                                                         
   16 entries                                                                   
     n  l   j            E        occ.                                          
     1  0  0.50    -78401.1885   2.0000                                         
     2  0  0.50    -13770.7750   2.0000                                         
     2  1  1.50    -11931.0468   6.0000                                         
     3  0  0.50     -3234.7234   2.0000                                         
     3  1  1.50     -2699.2216   6.0000                                         
     3  2  2.50     -2119.5714  10.0000                                         
     4  0  0.50      -695.1528   2.0000                                         
     4  1  1.50      -519.6034   6.0000                                         
     4  2  2.50      -306.6786  10.0000                                         
     4  3  3.50       -70.1041  14.0000                                         
     5  0  0.50      -101.7747   2.0000                                         
     5  1  1.50       -55.9873   6.0000                                         
     5  2  2.50        -6.1423   9.0000                                         
     6  0  0.50        -5.6573   1.0000                                         
     6  1  1.50        -6.8029   0.0000                                         
     5  3  2.50        -1.3606   0.0000                                         
   Description                                                                  
     l       E           TYP  RCUT    TYP  RCUT                                 
     2     -6.1423404     23  2.500                                             
     2     -7.5029230     23  2.500                                             
     0     -5.6573207     23  2.500                                             
     0      0.7416693     23  2.500                                             
     1     -2.7211652     23  2.600                                             
     1     20.4087390     23  2.600                                             
     3     -1.3605826     23  2.500                                             
  local pseudopotential read in
  partial core-charges read in
  partial kinetic energy density read in
  atomic valenz-charges read in
  non local Contribution for L=           2  read in
    real space projection operators read in
  non local Contribution for L=           2  read in
    real space projection operators read in
  non local Contribution for L=           0  read in
    real space projection operators read in
  non local Contribution for L=           0  read in
    real space projection operators read in
  non local Contribution for L=           1  read in
    real space projection operators read in
  non local Contribution for L=           1  read in
    real space projection operators read in
    PAW grid and wavefunctions read in
 
   number of l-projection  operators is LMAX  =           6
   number of lm-projection operators is LMMAX =          18
 
 POTCAR:    PAW_PBE Au 04Oct2007                  
   SHA256 =  d0044ae04e2bdce24051b198fc5c053d722a5bc6fe3c3b100514a13fc5d2db88 Au
   COPYR  = (c) Copyright 04Oct2007 Georg Kresse                                
   COPYR  = This file is part of the software VASP. Any use, copying, and all ot
   COPYR  = If you do not have a valid VASP license, you may not use, copy or di
   VRHFIN =Au: s1d10                                                            
   LEXCH  = PE                                                                  
   EATOM  =   926.0867 eV,   68.0654 Ry                                         
                                                                                
   TITEL  = PAW_PBE Au 04Oct2007                                                
   LULTRA =        F    use ultrasoft PP ?                                      
   IUNSCR =        1    unscreen: 0-lin 1-nonlin 2-no                           
   RPACOR =    2.330    partial core radius                                     
   POMASS =  196.966; ZVAL   =   11.000    mass and valenz                      
   RCORE  =    2.500    outmost cutoff radius                                   
   RWIGS  =    2.840; RWIGS  =    1.503    wigner-seitz radius (au A)           
   ENMAX  =  229.943; ENMIN  =  172.457 eV                                      
   ICORE  =        3    local potential                                         
   LCOR   =        T    correct aug charges                                     
   LPAW   =        T    paw PP                                                  
   EAUG   =  356.670                                                            
   DEXC   =    0.000                                                            
   RMAX   =    2.562    core radius for proj-oper                               
   RAUG   =    1.300    factor for augmentation sphere                          
   RDEP   =    2.598    radius for radial grids                                 
   RDEPT  =    2.193    core radius for aug-charge                              
                                                                                
   Atomic configuration                                                         
   16 entries                                                                   
     n  l   j            E        occ.                                          
     1  0  0.50    -80748.5001   2.0000                                         
     2  0  0.50    -14244.7466   2.0000                                         
     2  1  1.50    -12310.9591   6.0000                                         
     3  0  0.50     -3362.1768   2.0000                                         
     3  1  1.50     -2801.5463   6.0000                                         
     3  2  2.50     -2203.8206  10.0000                                         
     4  0  0.50      -729.8168   2.0000                                         
     4  1  1.50      -546.0527   6.0000                                         
     4  2  2.50      -325.7302  10.0000                                         
     4  3  3.50       -81.1472  14.0000                                         
     5  0  0.50      -108.3201   2.0000                                         
     5  1  1.50       -59.7479   6.0000                                         
     5  2  2.50        -6.8783  10.0000                                         
     6  0  0.50        -5.7602   1.0000                                         
     6  1  1.50        -6.8029   0.0000                                         
     5  3  2.50        -1.3606   0.0000                                         
   Description                                                                  
     l       E           TYP  RCUT    TYP  RCUT                                 
     2     -6.8782861     23  2.500                                             
     2     -8.2388687     23  2.500                                             
     0     -5.7601759     23  2.500                                             
     0     -0.8493231     23  2.500                                             
     1     -2.7211652     23  2.500                                             
     1     27.2116520     23  2.500                                             
     3     -1.3605826     23  2.500                                             
  local pseudopotential read in
  partial core-charges read in
  partial kinetic energy density read in
  atomic valenz-charges read in
  non local Contribution for L=           2  read in
    real space projection operators read in
  non local Contribution for L=           2  read in
    real space projection operators read in
  non local Contribution for L=           0  read in
    real space projection operators read in
  non local Contribution for L=           0  read in
    real space projection operators read in
  non local Contribution for L=           1  read in
    real space projection operators read in
  non local Contribution for L=           1  read in
    real space projection operators read in
    PAW grid and wavefunctions read in
 
   number of l-projection  operators is LMAX  =           6
   number of lm-projection operators is LMMAX =          18
 
 POTCAR:    PAW_PBE H 15Jun2001                   
   SHA256 =  030f79b5d3ab3cf0e668861823c8fb652ff669f3e15e46930bd03bfd63a607b6 H/
   COPYR  = (c) Copyright 15Jun2001 Georg Kresse                                
   COPYR  = This file is part of the software VASP. Any use, copying, and all ot
   COPYR  = If you do not have a valid VASP license, you may not use, copy or di
   VRHFIN =H: ultrasoft test                                                    
   LEXCH  = PE                                                                  
   EATOM  =    12.4884 eV,    0.9179 Ry                                         
                                                                                
   TITEL  = PAW_PBE H 15Jun2001                                                 
   LULTRA =        F    use ultrasoft PP ?                                      
   IUNSCR =        0    unscreen: 0-lin 1-nonlin 2-no                           
   RPACOR =    0.000    partial core radius                                     
   POMASS =    1.000; ZVAL   =    1.000    mass and valenz                      
   RCORE  =    1.100    outmost cutoff radius                                   
   RWIGS  =    0.700; RWIGS  =    0.370    wigner-seitz radius (au A)           
   ENMAX  =  250.000; ENMIN  =  200.000 eV                                      
   RCLOC  =    0.701    cutoff for local pot                                    
   LCOR   =        T    correct aug charges                                     
   LPAW   =        T    paw PP                                                  
   EAUG   =  400.000                                                            
   RMAX   =    1.123    core radius for proj-oper                               
   RAUG   =    1.200    factor for augmentation sphere                          
   RDEP   =    1.112    radius for radial grids                                 
   RDEPT  =    0.926    core radius for aug-charge                              
                                                                                
   Atomic configuration                                                         
    2 entries                                                                   
     n  l   j            E        occ.                                          
     1  0  0.50        -6.4927   1.0000                                         
     2  1  0.50        -3.4015   0.0000                                         
   Description                                                                  
     l       E           TYP  RCUT    TYP  RCUT                                 
     0     -6.4927494     23  1.100                                             
     0      6.8029130     23  1.100                                             
     1     -4.0817478     23  1.100                                             
  local pseudopotential read in
  atomic valenz-charges read in
  non local Contribution for L=           0  read in
    real space projection operators read in
  non local Contribution for L=           0  read in
    real space projection operators read in
  non local Contribution for L=           1  read in
    real space projection operators read in
    PAW grid and wavefunctions read in
 
   number of l-projection  operators is LMAX  =           3
   number of lm-projection operators is LMMAX =           5
 

 ----------------------------------------------------------------------------- 
|                                                                             |
|  ADVICE TO THIS USER RUNNING 'VASP/VAMP'   (HEAR YOUR MASTER'S VOICE ...):  |
|                                                                             |
|      You have a (more or less) 'large supercell' and for larger cells       |
|      it might be more efficient to use real space projection opertators     |
|      So try LREAL= Auto  in the INCAR   file.                               |
|      Mind:          For very  accurate calculation you might also keep the  |
|      reciprocal projection scheme          (i.e. LREAL=.FALSE.)             |
|                                                                             |
 ----------------------------------------------------------------------------- 

  PAW_PBE Ir 06Sep2000                  :
 energy of atom  1       EATOM= -560.1833
 kinetic energy error for atom=    0.0056 (will be added to EATOM!!)
  PAW_PBE Pt 04Feb2005                  :
 energy of atom  2       EATOM= -729.1176
 kinetic energy error for atom=    0.0144 (will be added to EATOM!!)
  PAW_PBE Au 04Oct2007                  :
 energy of atom  3       EATOM= -926.0867
 kinetic energy error for atom=    0.0152 (will be added to EATOM!!)
  PAW_PBE H 15Jun2001                   :
 energy of atom  4       EATOM=  -12.4884
 kinetic energy error for atom=    0.0203 (will be added to EATOM!!)
 
 
 POSCAR: Ir Pt Au  H                             
  positions in cartesian coordinates
  No initial velocities read in
 exchange correlation table for  LEXCH =        8
   RHO(1)=    0.500       N(1)  =     2000
   RHO(2)=  100.500       N(2)  =     4000
 


--------------------------------------------------------------------------------------------------------


 ion  position               nearest neighbor table
   1  0.000  0.000  0.390-   3 2.78   3 2.78   4 2.78   4 2.78   2 2.78   2 2.78   5 2.84   7 2.84
                             6 2.84
   2  0.500  0.000  0.390-   4 2.78   3 2.78   4 2.78   3 2.78   1 2.78   1 2.78   8 2.81   6 2.84
                             5 2.84
   3  0.000  0.500  0.390-   1 2.78   1 2.78   2 2.78   2 2.78   4 2.78   4 2.78   8 2.81   7 2.84
                             5 2.84
   4  0.500  0.500  0.390-   2 2.78   1 2.78   2 2.78   1 2.78   3 2.78   3 2.78   8 2.81   7 2.84
                             6 2.84
   5  0.167  0.167  0.465-   7 2.78   6 2.78   8 2.78   8 2.78   7 2.78   6 2.78  16 2.80   9 2.80
                            10 2.80   1 2.84   3 2.84   2 2.84
   6  0.667  0.167  0.465-   7 2.78   5 2.78   8 2.78   8 2.78   7 2.78   5 2.78  11 2.80   9 2.80
                            10 2.80   1 2.84   2 2.84   4 2.84
   7  0.167  0.667  0.465-   5 2.78   6 2.78   8 2.78   8 2.78   6 2.78   5 2.78  11 2.80  16 2.80
                            10 2.80   1 2.84   3 2.84   4 2.84
   8  0.667  0.667  0.464-   6 2.78   7 2.78   5 2.78   5 2.78   6 2.78   7 2.78   4 2.81   3 2.81
                             2 2.81   9 2.84  16 2.84  11 2.84
   9  0.834  0.332  0.540-  11 2.77  16 2.77  10 2.78  10 2.78  16 2.79  11 2.79   5 2.80   6 2.80
                            15 2.81  14 2.81   8 2.84  12 2.91
  10  0.333  0.333  0.540-  11 2.78  11 2.78  16 2.78  16 2.78   9 2.78   9 2.78   6 2.80   7 2.80
                             5 2.80  14 2.82  15 2.82  13 2.82
  11  0.834  0.834  0.540-   9 2.77  16 2.77  10 2.78  10 2.78   9 2.79  16 2.79   6 2.80   7 2.80
                            14 2.81  13 2.81   8 2.84  12 2.91
  12  0.000  0.000  0.619-  17 1.56  14 2.78  13 2.78  15 2.78  15 2.78  13 2.78  14 2.78  11 2.91
                            16 2.91   9 2.91
  13  0.500  0.999  0.615-  14 2.77  15 2.77  12 2.78  12 2.78  14 2.79  15 2.79  11 2.81  16 2.81
                            10 2.82
  14  0.999  0.500  0.615-  13 2.77  15 2.77  12 2.78  12 2.78  13 2.79  15 2.79   9 2.81  11 2.81
                            10 2.82
  15  0.500  0.500  0.615-  13 2.77  14 2.77  12 2.78  12 2.78  13 2.79  14 2.79   9 2.81  16 2.81
                            10 2.82
  16  0.332  0.834  0.540-   9 2.77  11 2.77  10 2.78  10 2.78   9 2.79  11 2.79   5 2.80   7 2.80
                            15 2.81  13 2.81   8 2.84  12 2.91
  17  0.000  0.000  0.670-  12 1.56
 
  LATTYP: Found a hexagonal cell.
 ALAT       =     5.5578593001
 C/A-ratio  =     5.5429542221
  
  Lattice vectors:
  
 A1 = (   2.7789296501,  -4.8132473446,   0.0000000000)
 A2 = (  -5.5578593001,   0.0000000000,   0.0000000000)
 A3 = (   0.0000000000,   0.0000000000, -30.8069596737)


Analysis of symmetry for initial positions (statically):
=====================================================================
 Subroutine PRICEL returns:
 Original cell was already a primitive cell.
 

 Routine SETGRP: Setting up the symmetry group for a 
 hexagonal supercell.


 Subroutine GETGRP returns: Found  2 space group operations
 (whereof  2 operations were pure point group operations)
 out of a pool of 24 trial point group operations.


The static configuration has the point symmetry C_1h.


Analysis of symmetry for dynamics (positions and initial velocities):
=====================================================================
 Subroutine PRICEL returns:
 Original cell was already a primitive cell.
 

 Routine SETGRP: Setting up the symmetry group for a 
 hexagonal supercell.


 Subroutine GETGRP returns: Found  2 space group operations
 (whereof  2 operations were pure point group operations)
 out of a pool of 24 trial point group operations.


The dynamic configuration has the point symmetry C_1h.


Analysis of constrained symmetry for selective dynamics:
=====================================================================
 Subroutine PRICEL returns:
 Original cell was already a primitive cell.
 

 Routine SETGRP: Setting up the symmetry group for a 
 hexagonal supercell.


 Subroutine GETGRP returns: Found  2 space group operations
 (whereof  2 operations were pure point group operations)
 out of a pool of 24 trial point group operations.


The constrained configuration has the point symmetry C_1h.


 Subroutine INISYM returns: Found  2 space group operations
 (whereof  2 operations are pure point group operations),
 and found     1 'primitive' translations

 
 
 KPOINTS: KPOINTS created by Atomic Simulation Env

Automatic generation of k-mesh.
Space group operators:
 irot       det(A)        alpha          n_x          n_y          n_z        tau_x        tau_y        tau_z
    1     1.000000     0.000001     1.000000     0.000000     0.000000     0.000000     0.000000     0.000000
    2    -1.000000   180.000000    -0.500000    -0.866025     0.000000     0.000000     0.000000     0.000000
 
 Subroutine IBZKPT returns following result:
 ===========================================
 
 Found     52 irreducible k-points:
 
 Following reciprocal coordinates:
            Coordinates               Weight
  0.062500  0.062500  0.000000     32.000000
 -0.062500  0.000000  0.000000     16.000000
  0.187500  0.062500  0.000000     32.000000
  0.125000  0.187500  0.000000     32.000000
 -0.062500  0.125000  0.000000     32.000000
  0.312500  0.062500  0.000000     32.000000
  0.250000  0.312500  0.000000     32.000000
 -0.062500  0.250000  0.000000     32.000000
  0.437500  0.062500  0.000000     32.000000
  0.375000  0.437500  0.000000     32.000000
 -0.062500  0.375000  0.000000     32.000000
 -0.437500  0.062500  0.000000     32.000000
  0.500000 -0.437500  0.000000     32.000000
 -0.062500  0.500000  0.000000     32.000000
 -0.312500  0.062500  0.000000     32.000000
 -0.375000 -0.312500  0.000000     32.000000
 -0.062500 -0.375000  0.000000     32.000000
 -0.187500  0.062500  0.000000     32.000000
 -0.250000 -0.187500  0.000000     32.000000
 -0.062500 -0.250000  0.000000     32.000000
 -0.062500  0.062500  0.000000     32.000000
 -0.062500 -0.125000  0.000000     16.000000
  0.187500  0.187500  0.000000     32.000000
 -0.187500  0.000000  0.000000     16.000000
  0.312500  0.187500  0.000000     32.000000
  0.125000  0.312500  0.000000     32.000000
 -0.187500  0.125000  0.000000     32.000000
  0.437500  0.187500  0.000000     32.000000
  0.250000  0.437500  0.000000     32.000000
 -0.187500  0.250000  0.000000     32.000000
 -0.437500  0.187500  0.000000     32.000000
  0.375000 -0.437500  0.000000     32.000000
 -0.187500  0.375000  0.000000     32.000000
 -0.312500  0.187500  0.000000     32.000000
  0.500000 -0.312500  0.000000     32.000000
 -0.187500  0.500000  0.000000     32.000000
 -0.187500  0.187500  0.000000     32.000000
 -0.187500 -0.375000  0.000000     16.000000
  0.312500  0.312500  0.000000     32.000000
 -0.312500  0.000000  0.000000     16.000000
  0.437500  0.312500  0.000000     32.000000
  0.125000  0.437500  0.000000     32.000000
 -0.312500  0.125000  0.000000     32.000000
 -0.437500  0.312500  0.000000     32.000000
  0.250000 -0.437500  0.000000     32.000000
 -0.312500  0.250000  0.000000     32.000000
 -0.312500  0.312500  0.000000     32.000000
 -0.312500  0.375000  0.000000     16.000000
  0.437500  0.437500  0.000000     32.000000
 -0.437500  0.000000  0.000000     16.000000
 -0.437500  0.437500  0.000000     32.000000
 -0.437500  0.125000  0.000000     16.000000
 
 Following cartesian coordinates:
            Coordinates               Weight
  0.011245  0.006492  0.000000     32.000000
 -0.011245  0.006492  0.000000     16.000000
  0.033736 -0.006492  0.000000     32.000000
  0.022491  0.025970  0.000000     32.000000
 -0.011245  0.032462  0.000000     32.000000
  0.056227 -0.019477  0.000000     32.000000
  0.044981  0.038955  0.000000     32.000000
 -0.011245  0.058432  0.000000     32.000000
  0.078717 -0.032462  0.000000     32.000000
  0.067472  0.051940  0.000000     32.000000
 -0.011245  0.084402  0.000000     32.000000
 -0.078717  0.058432  0.000000     32.000000
  0.089963 -0.142835  0.000000     32.000000
 -0.011245  0.110372  0.000000     32.000000
 -0.056227  0.045447  0.000000     32.000000
 -0.067472 -0.025970  0.000000     32.000000
 -0.011245 -0.071417  0.000000     32.000000
 -0.033736  0.032462  0.000000     32.000000
 -0.044981 -0.012985  0.000000     32.000000
 -0.011245 -0.045447  0.000000     32.000000
 -0.011245  0.019477  0.000000     32.000000
 -0.011245 -0.019477  0.000000     16.000000
  0.033736  0.019477  0.000000     32.000000
 -0.033736  0.019477  0.000000     16.000000
  0.056227  0.006492  0.000000     32.000000
  0.022491  0.051940  0.000000     32.000000
 -0.033736  0.045447  0.000000     32.000000
  0.078717 -0.006492  0.000000     32.000000
  0.044981  0.064925  0.000000     32.000000
 -0.033736  0.071417  0.000000     32.000000
 -0.078717  0.084402  0.000000     32.000000
  0.067472 -0.129850  0.000000     32.000000
 -0.033736  0.097387  0.000000     32.000000
 -0.056227  0.071417  0.000000     32.000000
  0.089963 -0.116865  0.000000     32.000000
 -0.033736  0.123357  0.000000     32.000000
 -0.033736  0.058432  0.000000     32.000000
 -0.033736 -0.058432  0.000000     16.000000
  0.056227  0.032462  0.000000     32.000000
 -0.056227  0.032462  0.000000     16.000000
  0.078717  0.019477  0.000000     32.000000
  0.022491  0.077910  0.000000     32.000000
 -0.056227  0.058432  0.000000     32.000000
 -0.078717  0.110372  0.000000     32.000000
  0.044981 -0.116865  0.000000     32.000000
 -0.056227  0.084402  0.000000     32.000000
 -0.056227  0.097387  0.000000     32.000000
 -0.056227  0.110372  0.000000     16.000000
  0.078717  0.045447  0.000000     32.000000
 -0.078717  0.045447  0.000000     16.000000
 -0.078717  0.136342  0.000000     32.000000
 -0.078717  0.071417  0.000000     16.000000
 


--------------------------------------------------------------------------------------------------------




 Dimension of arrays:
   k-points           NKPTS =     52   k-points in BZ     NKDIM =     52   number of bands    NBANDS=     96
   number of dos      NEDOS =    301   number of ions     NIONS =     17
   non local maximal  LDIM  =      6   non local SUM 2l+1 LMDIM =     18
   total plane-waves  NPLWV = 112896
   max r-space proj   IRMAX =      1   max aug-charges    IRDMAX=  10104
   dimension x,y,z NGX =    28 NGY =   28 NGZ =  144
   dimension x,y,z NGXF=    56 NGYF=   56 NGZF=  288
   support grid    NGXF=    56 NGYF=   56 NGZF=  288
   ions per type =               1  14   1   1
   NGX,Y,Z   is equivalent  to a cutoff of   8.38,  8.38,  7.77 a.u.
   NGXF,Y,Z  is equivalent  to a cutoff of  16.75, 16.75, 15.54 a.u.

 SYSTEM =  unknown system                          
 POSCAR =  Ir Pt Au  H                             

 Startparameter for this run:
   NWRITE =      2    write-flag & timer
   PREC   = normal    normal or accurate (medium, high low for compatibility)
   ISTART =      0    job   : 0-new  1-cont  2-samecut
   ICHARG =      2    charge: 1-file 2-atom 10-const
   ISPIN  =      1    spin polarized calculation?
   LNONCOLLINEAR =      F non collinear calculations
   LSORBIT =      F    spin-orbit coupling
   INIWAV =      1    electr: 0-lowe 1-rand  2-diag
   LASPH  =      F    aspherical Exc in radial PAW
   METAGGA=      F    non-selfconsistent MetaGGA calc.

 Electronic Relaxation 1
   ENCUT  =  350.0 eV  25.72 Ry    5.07 a.u.   8.48  8.48 46.99*2*pi/ulx,y,z
   ENINI  =  350.0     initial cutoff
   ENAUG  =  400.0 eV  augmentation charge cutoff
   NELM   =     60;   NELMIN=  2; NELMDL= -5     # of ELM steps 
   EDIFF  = 0.1E-04   stopping-criterion for ELM
   LREAL  =      F    real-space projection
   NLSPLINE    = F    spline interpolate recip. space projectors
   LCOMPAT=      F    compatible to vasp.4.4
   GGA_COMPAT  = T    GGA compatible to vasp.4.4-vasp.4.6
   LMAXPAW     = -100 max onsite density
   LMAXMIX     =    2 max onsite mixed and CHGCAR
   VOSKOWN=      0    Vosko Wilk Nusair interpolation
   ROPT   =    0.00000   0.00000   0.00000   0.00000
 Ionic relaxation
   EDIFFG = -.5E-01   stopping-criterion for IOM
   NSW    =      0    number of steps for IOM
   NBLOCK =      1;   KBLOCK =      1    inner block; outer block 
   IBRION =     -1    ionic relax: 0-MD 1-quasi-New 2-CG
   NFREE  =      1    steps in history (QN), initial steepest desc. (CG)
   ISIF   =      2    stress and relaxation
   IWAVPR =     10    prediction:  0-non 1-charg 2-wave 3-comb
   ISYM   =      2    0-nonsym 1-usesym 2-fastsym
   LCORR  =      T    Harris-Foulkes like correction to forces

   POTIM  = 0.5000    time-step for ionic-motion
   TEIN   =    0.0    initial temperature
   TEBEG  =    0.0;   TEEND  =   0.0 temperature during run
   SMASS  =  -3.00    Nose mass-parameter (am)
   estimated Nose-frequenzy (Omega)   =  0.10E-29 period in steps =****** mass=  -0.706E-27a.u.
   SCALEE = 1.0000    scale energy and forces
   NPACO  =    256;   APACO  = 16.0  distance and # of slots for P.C.
   PSTRESS=    0.0 pullay stress

  Mass of Ions in am
   POMASS = 192.22195.08196.97  1.00
  Ionic Valenz
   ZVAL   =   9.00 10.00 11.00  1.00
  Atomic Wigner-Seitz radii
   RWIGS  =  -1.00 -1.00 -1.00 -1.00
  virtual crystal weights 
   VCA    =   1.00  1.00  1.00  1.00
   NELECT =     161.0000    total number of electrons
   NUPDOWN=      -1.0000    fix difference up-down

 DOS related values:
   EMIN   =  10.00;   EMAX   =-10.00  energy-range for DOS
   EFERMI =   0.00
   ISMEAR =     1;   SIGMA  =   0.20  broadening in eV -4-tet -1-fermi 0-gaus

 Electronic relaxation 2 (details)
   IALGO  =     38    algorithm
   LDIAG  =      T    sub-space diagonalisation (order eigenvalues)
   LSUBROT=      F    optimize rotation matrix (better conditioning)
   TURBO    =      0    0=normal 1=particle mesh
   IRESTART =      0    0=no restart 2=restart with 2 vectors
   NREBOOT  =      0    no. of reboots
   NMIN     =      0    reboot dimension
   EREF     =   0.00    reference energy to select bands
   IMIX   =      4    mixing-type and parameters
     AMIX     =   0.40;   BMIX     =  1.00
     AMIX_MAG =   1.60;   BMIX_MAG =  1.00
     AMIN     =   0.10
     WC   =   100.;   INIMIX=   1;  MIXPRE=   1;  MAXMIX= -45

 Intra band minimization:
   WEIMIN = 0.0000     energy-eigenvalue tresh-hold
   EBREAK =  0.26E-07  absolut break condition
   DEPER  =   0.30     relativ break condition  

   TIME   =   0.40     timestep for ELM

  volume/ion in A,a.u.               =      48.48       327.15
  Fermi-wavevector in a.u.,A,eV,Ry     =   0.949916  1.795081 12.277090  0.902341
  Thomas-Fermi vector in A             =   2.078244
 
 Write flags
   LWAVE        =      F    write WAVECAR
   LDOWNSAMPLE  =      F    k-point downsampling of WAVECAR
   LCHARG       =      F    write CHGCAR
   LVTOT        =      F    write LOCPOT, total local potential
   LVHAR        =      F    write LOCPOT, Hartree potential only
   LELF         =      F    write electronic localiz. function (ELF)
   LORBIT       =      0    0 simple, 1 ext, 2 COOP (PROOUT), +10 PAW based schemes


 Dipole corrections
   LMONO  =      F    monopole corrections only (constant potential shift)
   LDIPOL =      F    correct potential (dipole corrections)
   IDIPOL =      3    1-x, 2-y, 3-z, 4-all directions 
   EPSILON=  1.0000000 bulk dielectric constant

 Exchange correlation treatment:
   GGA     =    PE    GGA type
   LEXCH   =     8    internal setting for exchange type
   VOSKOWN=      0    Vosko Wilk Nusair interpolation
   LHFCALC =     F    Hartree Fock is set to
   LHFONE  =     F    Hartree Fock one center treatment
   AEXX    =    0.0000 exact exchange contribution

 Linear response parameters
   LEPSILON=     F    determine dielectric tensor
   LRPA    =     F    only Hartree local field effects (RPA)
   LNABLA  =     F    use nabla operator in PAW spheres
   LVEL    =     F    velocity operator in full k-point grid
   LINTERFAST=   F  fast interpolation
   KINTER  =     0    interpolate to denser k-point grid
   CSHIFT  =0.1000    complex shift for real part using Kramers Kronig
   OMEGAMAX=  -1.0    maximum frequency
   DEG_THRESHOLD= 0.2000000E-02 threshold for treating states as degnerate
   RTIME   =   -0.100 relaxation time in fs
  (WPLASMAI=    0.000 imaginary part of plasma frequency in eV, 0.658/RTIME)
   DFIELD  = 0.0000000 0.0000000 0.0000000 field for delta impulse in time
 
 Orbital magnetization related:
   ORBITALMAG=     F  switch on orbital magnetization
   LCHIMAG   =     F  perturbation theory with respect to B field
   DQ        =  0.001000  dq finite difference perturbation B field
   LLRAUG    =     F  two centre corrections for induced B field



--------------------------------------------------------------------------------------------------------


 Static calculation
 charge density and potential will be updated during run
 non-spin polarized calculation
 Variant of blocked Davidson
 Davidson routine will perform the subspace rotation
 perform sub-space diagonalisation
    after iterative eigenvector-optimisation
 modified Broyden-mixing scheme, WC =      100.0
 initial mixing is a Kerker type mixing with AMIX =  0.4000 and BMIX =      1.0000
 Hartree-type preconditioning will be used
 using additional bands           15
 reciprocal scheme for non local part
 use partial core corrections
 calculate Harris-corrections to forces 
   (improved forces if not selfconsistent)
 use gradient corrections 
 use of overlap-Matrix (Vanderbilt PP)
 Methfessel and Paxton  Order N= 1 SIGMA  =   0.20


--------------------------------------------------------------------------------------------------------


  energy-cutoff  :      350.00
  volume of cell :      824.13
      direct lattice vectors                 reciprocal lattice vectors
     5.557859300  0.000000000  0.000000000     0.179925390 -0.103879972  0.000000000
     2.778929650  4.813247345  0.000000000     0.000000000  0.207759944  0.000000000
     0.000000000  0.000000000 30.806959674     0.000000000  0.000000000  0.032460198

  length of vectors
     5.557859300  5.557859300 30.806959674     0.207759944  0.207759944  0.032460198


 
 k-points in units of 2pi/SCALE and weight: KPOINTS created by Atomic Simulation Env
   0.01124534  0.00649250  0.00000000       0.021
  -0.01124534  0.00649250  0.00000000       0.010
   0.03373601 -0.00649250  0.00000000       0.021
   0.02249067  0.02596999  0.00000000       0.021
  -0.01124534  0.03246249  0.00000000       0.021
   0.05622668 -0.01947749  0.00000000       0.021
   0.04498135  0.03895499  0.00000000       0.021
  -0.01124534  0.05843248  0.00000000       0.021
   0.07871736 -0.03246249  0.00000000       0.021
   0.06747202  0.05193999  0.00000000       0.021
  -0.01124534  0.08440248  0.00000000       0.021
  -0.07871736  0.05843248  0.00000000       0.021
   0.08996269 -0.14283496  0.00000000       0.021
  -0.01124534  0.11037247  0.00000000       0.021
  -0.05622668  0.04544749  0.00000000       0.021
  -0.06747202 -0.02596999  0.00000000       0.021
  -0.01124534 -0.07141748  0.00000000       0.021
  -0.03373601  0.03246249  0.00000000       0.021
  -0.04498135 -0.01298500  0.00000000       0.021
  -0.01124534 -0.04544749  0.00000000       0.021
  -0.01124534  0.01947749  0.00000000       0.021
  -0.01124534 -0.01947749  0.00000000       0.010
   0.03373601  0.01947749  0.00000000       0.021
  -0.03373601  0.01947749  0.00000000       0.010
   0.05622668  0.00649250  0.00000000       0.021
   0.02249067  0.05193999  0.00000000       0.021
  -0.03373601  0.04544749  0.00000000       0.021
   0.07871736 -0.00649250  0.00000000       0.021
   0.04498135  0.06492498  0.00000000       0.021
  -0.03373601  0.07141748  0.00000000       0.021
  -0.07871736  0.08440248  0.00000000       0.021
   0.06747202 -0.12984997  0.00000000       0.021
  -0.03373601  0.09738747  0.00000000       0.021
  -0.05622668  0.07141748  0.00000000       0.021
   0.08996269 -0.11686497  0.00000000       0.021
  -0.03373601  0.12335747  0.00000000       0.021
  -0.03373601  0.05843248  0.00000000       0.021
  -0.03373601 -0.05843248  0.00000000       0.010
   0.05622668  0.03246249  0.00000000       0.021
  -0.05622668  0.03246249  0.00000000       0.010
   0.07871736  0.01947749  0.00000000       0.021
   0.02249067  0.07790998  0.00000000       0.021
  -0.05622668  0.05843248  0.00000000       0.021
  -0.07871736  0.11037247  0.00000000       0.021
   0.04498135 -0.11686497  0.00000000       0.021
  -0.05622668  0.08440248  0.00000000       0.021
  -0.05622668  0.09738747  0.00000000       0.021
  -0.05622668  0.11037247  0.00000000       0.010
   0.07871736  0.04544749  0.00000000       0.021
  -0.07871736  0.04544749  0.00000000       0.010
  -0.07871736  0.13634246  0.00000000       0.021
  -0.07871736  0.07141748  0.00000000       0.010
 
 k-points in reciprocal lattice and weights: KPOINTS created by Atomic Simulation Env
   0.06250000  0.06250000  0.00000000       0.021
  -0.06250000  0.00000000  0.00000000       0.010
   0.18750000  0.06250000  0.00000000       0.021
   0.12500000  0.18750000  0.00000000       0.021
  -0.06250000  0.12500000  0.00000000       0.021
   0.31250000  0.06250000  0.00000000       0.021
   0.25000000  0.31250000  0.00000000       0.021
  -0.06250000  0.25000000  0.00000000       0.021
   0.43750000  0.06250000  0.00000000       0.021
   0.37500000  0.43750000  0.00000000       0.021
  -0.06250000  0.37500000  0.00000000       0.021
  -0.43750000  0.06250000  0.00000000       0.021
   0.50000000 -0.43750000  0.00000000       0.021
  -0.06250000  0.50000000  0.00000000       0.021
  -0.31250000  0.06250000  0.00000000       0.021
  -0.37500000 -0.31250000  0.00000000       0.021
  -0.06250000 -0.37500000  0.00000000       0.021
  -0.18750000  0.06250000  0.00000000       0.021
  -0.25000000 -0.18750000  0.00000000       0.021
  -0.06250000 -0.25000000  0.00000000       0.021
  -0.06250000  0.06250000  0.00000000       0.021
  -0.06250000 -0.12500000  0.00000000       0.010
   0.18750000  0.18750000  0.00000000       0.021
  -0.18750000  0.00000000  0.00000000       0.010
   0.31250000  0.18750000  0.00000000       0.021
   0.12500000  0.31250000  0.00000000       0.021
  -0.18750000  0.12500000  0.00000000       0.021
   0.43750000  0.18750000  0.00000000       0.021
   0.25000000  0.43750000  0.00000000       0.021
  -0.18750000  0.25000000  0.00000000       0.021
  -0.43750000  0.18750000  0.00000000       0.021
   0.37500000 -0.43750000  0.00000000       0.021
  -0.18750000  0.37500000  0.00000000       0.021
  -0.31250000  0.18750000  0.00000000       0.021
   0.50000000 -0.31250000  0.00000000       0.021
  -0.18750000  0.50000000  0.00000000       0.021
  -0.18750000  0.18750000  0.00000000       0.021
  -0.18750000 -0.37500000  0.00000000       0.010
   0.31250000  0.31250000  0.00000000       0.021
  -0.31250000  0.00000000  0.00000000       0.010
   0.43750000  0.31250000  0.00000000       0.021
   0.12500000  0.43750000  0.00000000       0.021
  -0.31250000  0.12500000  0.00000000       0.021
  -0.43750000  0.31250000  0.00000000       0.021
   0.25000000 -0.43750000  0.00000000       0.021
  -0.31250000  0.25000000  0.00000000       0.021
  -0.31250000  0.31250000  0.00000000       0.021
  -0.31250000  0.37500000  0.00000000       0.010
   0.43750000  0.43750000  0.00000000       0.021
  -0.43750000  0.00000000  0.00000000       0.010
  -0.43750000  0.43750000  0.00000000       0.021
  -0.43750000  0.12500000  0.00000000       0.010
 
 position of ions in fractional coordinates (direct lattice) 
   0.00000000  0.00000000  0.38952237
   0.50000000  0.00000000  0.38952237
   0.00000000  0.50000000  0.38952237
   0.50000000  0.50000000  0.38952237
   0.16652883  0.16652883  0.46542487
   0.66694234  0.16652883  0.46542487
   0.16652883  0.66694234  0.46542487
   0.66666667  0.66666667  0.46426737
   0.83396869  0.33206261  0.54005199
   0.33333333  0.33333333  0.53994492
   0.83396869  0.83396869  0.54005199
   0.00000000  0.00000000  0.61904352
   0.50048728  0.99902544  0.61498914
   0.99902544  0.50048728  0.61498914
   0.50048728  0.50048728  0.61498914
   0.33206261  0.83396869  0.54005199
   0.00000000  0.00000000  0.66953436
 
 position of ions in cartesian coordinates  (Angst):
   0.00000000  0.00000000 12.00000000
   2.77892965  0.00000000 12.00000000
   1.38946483  2.40662367 12.00000000
   4.16839448  2.40662367 12.00000000
   1.38831573  0.80154446 14.33832516
   4.16954357  0.80154446 14.33832516
   2.77892965  3.21015843 14.33832516
   5.55785930  3.20883156 14.30266626
   5.55785930  1.59829948 16.63736001
   2.77892965  1.60441578 16.63406129
   6.95262100  4.01409760 16.63736001
   0.00000000  0.00000000 19.07084875
   5.55785930  4.80855657 18.94594552
   6.94326179  2.40896906 18.94594552
   4.17245681  2.40896906 18.94594552
   4.16309760  4.01409760 16.63736001
   0.00000000  0.00000000 20.62631794
 


--------------------------------------------------------------------------------------------------------


 k-point  1 :   0.0625 0.0625 0.0000  plane waves:   12325
 k-point  2 :  -0.0625 0.0000 0.0000  plane waves:   12325
 k-point  3 :   0.1875 0.0625 0.0000  plane waves:   12294
 k-point  4 :   0.1250 0.1875 0.0000  plane waves:   12294
 k-point  5 :  -0.0625 0.1250 0.0000  plane waves:   12294
 k-point  6 :   0.3125 0.0625 0.0000  plane waves:   12263
 k-point  7 :   0.2500 0.3125 0.0000  plane waves:   12263
 k-point  8 :  -0.0625 0.2500 0.0000  plane waves:   12263
 k-point  9 :   0.4375 0.0625 0.0000  plane waves:   12221
 k-point 10 :   0.3750 0.4375 0.0000  plane waves:   12221
 k-point 11 :  -0.0625 0.3750 0.0000  plane waves:   12221
 k-point 12 :  -0.4375 0.0625 0.0000  plane waves:   12211
 k-point 13 :   0.5000-0.4375 0.0000  plane waves:   12211
 k-point 14 :  -0.0625 0.5000 0.0000  plane waves:   12211
 k-point 15 :  -0.3125 0.0625 0.0000  plane waves:   12242
 k-point 16 :  -0.3750-0.3125 0.0000  plane waves:   12242
 k-point 17 :  -0.0625-0.3750 0.0000  plane waves:   12242
 k-point 18 :  -0.1875 0.0625 0.0000  plane waves:   12280
 k-point 19 :  -0.2500-0.1875 0.0000  plane waves:   12280
 k-point 20 :  -0.0625-0.2500 0.0000  plane waves:   12280
 k-point 21 :  -0.0625 0.0625 0.0000  plane waves:   12329
 k-point 22 :  -0.0625-0.1250 0.0000  plane waves:   12329
 k-point 23 :   0.1875 0.1875 0.0000  plane waves:   12277
 k-point 24 :  -0.1875 0.0000 0.0000  plane waves:   12277
 k-point 25 :   0.3125 0.1875 0.0000  plane waves:   12288
 k-point 26 :   0.1250 0.3125 0.0000  plane waves:   12288
 k-point 27 :  -0.1875 0.1250 0.0000  plane waves:   12288
 k-point 28 :   0.4375 0.1875 0.0000  plane waves:   12234
 k-point 29 :   0.2500 0.4375 0.0000  plane waves:   12234
 k-point 30 :  -0.1875 0.2500 0.0000  plane waves:   12234
 k-point 31 :  -0.4375 0.1875 0.0000  plane waves:   12216
 k-point 32 :   0.3750-0.4375 0.0000  plane waves:   12216
 k-point 33 :  -0.1875 0.3750 0.0000  plane waves:   12216
 k-point 34 :  -0.3125 0.1875 0.0000  plane waves:   12215
 k-point 35 :   0.5000-0.3125 0.0000  plane waves:   12215
 k-point 36 :  -0.1875 0.5000 0.0000  plane waves:   12215
 k-point 37 :  -0.1875 0.1875 0.0000  plane waves:   12289
 k-point 38 :  -0.1875-0.3750 0.0000  plane waves:   12289
 k-point 39 :   0.3125 0.3125 0.0000  plane waves:   12275
 k-point 40 :  -0.3125 0.0000 0.0000  plane waves:   12275
 k-point 41 :   0.4375 0.3125 0.0000  plane waves:   12239
 k-point 42 :   0.1250 0.4375 0.0000  plane waves:   12239
 k-point 43 :  -0.3125 0.1250 0.0000  plane waves:   12239
 k-point 44 :  -0.4375 0.3125 0.0000  plane waves:   12235
 k-point 45 :   0.2500-0.4375 0.0000  plane waves:   12235
 k-point 46 :  -0.3125 0.2500 0.0000  plane waves:   12235
 k-point 47 :  -0.3125 0.3125 0.0000  plane waves:   12232
 k-point 48 :  -0.3125 0.3750 0.0000  plane waves:   12232
 k-point 49 :   0.4375 0.4375 0.0000  plane waves:   12200
 k-point 50 :  -0.4375 0.0000 0.0000  plane waves:   12200
 k-point 51 :  -0.4375 0.4375 0.0000  plane waves:   12214
 k-point 52 :  -0.4375 0.1250 0.0000  plane waves:   12214

 maximum and minimum number of plane-waves per node :     12329    12200

 maximum number of plane-waves:     12329
 maximum index in each direction: 
   IXMAX=    8   IYMAX=    8   IZMAX=   46
   IXMIN=   -8   IYMIN=   -8   IZMIN=  -46


 serial   3D FFT for wavefunctions
 parallel 3D FFT for charge:
    minimum data exchange during FFTs selected (reduces bandwidth)


 total amount of memory used by VASP MPI-rank0   455244. kBytes
=======================================================================

   base      :      30000. kBytes
   nonl-proj :     372843. kBytes
   fftplans  :       2015. kBytes
   grid      :       8030. kBytes
   one-center:        264. kBytes
   wavefun   :      42092. kBytes
 
     INWAV:  cpu time    0.0000: real time    0.0000
 Broyden mixing: mesh for mixing (old mesh)
   NGX = 17   NGY = 17   NGZ = 93
  (NGX  = 56   NGY  = 56   NGZ  =288)
  gives a total of  26877 points

 initial charge density was supplied:
 charge density of overlapping atoms calculated
 number of electron     161.0000000 magnetization 
 keeping initial charge density in first step


--------------------------------------------------------------------------------------------------------


 Maximum index for augmentation-charges          824 (set IRDMAX)


--------------------------------------------------------------------------------------------------------


 First call to EWALD:  gamma=   0.189
 Maximum number of real-space cells 5x 5x 1
 Maximum number of reciprocal cells 2x 2x 8

    FEWALD:  cpu time    0.0012: real time    0.0012


--------------------------------------- Iteration      1(   1)  ---------------------------------------


    POTLOK:  cpu time    0.0197: real time    0.0259
    SETDIJ:  cpu time    0.0025: real time    0.0025
     EDDAV:  cpu time    9.2083: real time    9.2098
       DOS:  cpu time    0.0017: real time    0.0018
    --------------------------------------------
      LOOP:  cpu time    9.2323: real time    9.2401

 eigenvalue-minimisations  :  9984
 total energy-change (2. order) : 0.9795724E+03  (-0.5574715E+04)
 number of electron     161.0000000 magnetization 
 augmentation part      161.0000000 magnetization 

 Free energy of the ion-electron system (eV)
  ---------------------------------------------------
  alpha Z        PSCENC =       305.89839443
  Ewald energy   TEWEN  =     99026.97233169
  -Hartree energ DENC   =   -111114.70690801
  -exchange      EXHF   =         0.00000000
  -V(xc)+E(xc)   XCENC  =        48.74461062
  PAW double counting   =     11173.35063782   -10713.98924482
  entropy T*S    EENTRO =         0.00814879
  eigenvalues    EBANDS =       547.13212077
  atomic energy  EATOM  =     11706.16234457
  Solvation  Ediel_sol  =         0.00000000
  ---------------------------------------------------
  free energy    TOTEN  =       979.57243585 eV

  energy without entropy =      979.56428706  energy(sigma->0) =      979.56971959


--------------------------------------------------------------------------------------------------------




--------------------------------------- Iteration      1(   2)  ---------------------------------------


     EDDAV:  cpu time   13.1295: real time   13.1318
       DOS:  cpu time    0.0019: real time    0.0019
    --------------------------------------------
      LOOP:  cpu time   13.1314: real time   13.1337

 eigenvalue-minimisations  : 14568
 total energy-change (2. order) :-0.1022048E+04  (-0.9909192E+03)
 number of electron     161.0000000 magnetization 
 augmentation part      161.0000000 magnetization 

 Free energy of the ion-electron system (eV)
  ---------------------------------------------------
  alpha Z        PSCENC =       305.89839443
  Ewald energy   TEWEN  =     99026.97233169
  -Hartree energ DENC   =   -111114.70690801
  -exchange      EXHF   =         0.00000000
  -V(xc)+E(xc)   XCENC  =        48.74461062
  PAW double counting   =     11173.35063782   -10713.98924482
  entropy T*S    EENTRO =        -0.00434428
  eigenvalues    EBANDS =      -474.90357860
  atomic energy  EATOM  =     11706.16234457
  Solvation  Ediel_sol  =         0.00000000
  ---------------------------------------------------
  free energy    TOTEN  =       -42.47575659 eV

  energy without entropy =      -42.47141231  energy(sigma->0) =      -42.47430850


--------------------------------------------------------------------------------------------------------




--------------------------------------- Iteration      1(   3)  ---------------------------------------


     EDDAV:  cpu time   11.3209: real time   11.3226
       DOS:  cpu time    0.0018: real time    0.0018
    --------------------------------------------
      LOOP:  cpu time   11.3227: real time   11.3244

 eigenvalue-minimisations  : 12552
 total energy-change (2. order) :-0.5850027E+02  (-0.5683960E+02)
 number of electron     161.0000000 magnetization 
 augmentation part      161.0000000 magnetization 

 Free energy of the ion-electron system (eV)
  ---------------------------------------------------
  alpha Z        PSCENC =       305.89839443
  Ewald energy   TEWEN  =     99026.97233169
  -Hartree energ DENC   =   -111114.70690801
  -exchange      EXHF   =         0.00000000
  -V(xc)+E(xc)   XCENC  =        48.74461062
  PAW double counting   =     11173.35063782   -10713.98924482
  entropy T*S    EENTRO =        -0.01150534
  eigenvalues    EBANDS =      -533.39668471
  atomic energy  EATOM  =     11706.16234457
  Solvation  Ediel_sol  =         0.00000000
  ---------------------------------------------------
  free energy    TOTEN  =      -100.97602376 eV

  energy without entropy =     -100.96451842  energy(sigma->0) =     -100.97218865


--------------------------------------------------------------------------------------------------------




--------------------------------------- Iteration      1(   4)  ---------------------------------------


     EDDAV:  cpu time   12.5013: real time   12.5040
       DOS:  cpu time    0.0018: real time    0.0018
    --------------------------------------------
      LOOP:  cpu time   12.5032: real time   12.5058

 eigenvalue-minimisations  : 14160
 total energy-change (2. order) :-0.1250182E+01  (-0.1244481E+01)
 number of electron     161.0000000 magnetization 
 augmentation part      161.0000000 magnetization 

 Free energy of the ion-electron system (eV)
  ---------------------------------------------------
  alpha Z        PSCENC =       305.89839443
  Ewald energy   TEWEN  =     99026.97233169
  -Hartree energ DENC   =   -111114.70690801
  -exchange      EXHF   =         0.00000000
  -V(xc)+E(xc)   XCENC  =        48.74461062
  PAW double counting   =     11173.35063782   -10713.98924482
  entropy T*S    EENTRO =        -0.01213130
  eigenvalues    EBANDS =      -534.64624121
  atomic energy  EATOM  =     11706.16234457
  Solvation  Ediel_sol  =         0.00000000
  ---------------------------------------------------
  free energy    TOTEN  =      -102.22620622 eV

  energy without entropy =     -102.21407492  energy(sigma->0) =     -102.22216246


--------------------------------------------------------------------------------------------------------




--------------------------------------- Iteration      1(   5)  ---------------------------------------


     EDDAV:  cpu time   13.4581: real time   13.4598
       DOS:  cpu time    0.0017: real time    0.0017
    CHARGE:  cpu time    0.3185: real time    0.3186
    MIXING:  cpu time    0.0009: real time    0.0010
    --------------------------------------------
      LOOP:  cpu time   13.7792: real time   13.7811

 eigenvalue-minimisations  : 15072
 total energy-change (2. order) :-0.3095073E-01  (-0.3093461E-01)
 number of electron     161.0000040 magnetization 
 augmentation part       46.8888248 magnetization 

 Broyden mixing:
  rms(total) = 0.41855E+01    rms(broyden)= 0.41853E+01
  rms(prec ) = 0.42190E+01
  weight for this iteration     100.00

 Free energy of the ion-electron system (eV)
  ---------------------------------------------------
  alpha Z        PSCENC =       305.89839443
  Ewald energy   TEWEN  =     99026.97233169
  -Hartree energ DENC   =   -111114.70690801
  -exchange      EXHF   =         0.00000000
  -V(xc)+E(xc)   XCENC  =        48.74461062
  PAW double counting   =     11173.35063782   -10713.98924482
  entropy T*S    EENTRO =        -0.01215016
  eigenvalues    EBANDS =      -534.67717308
  atomic energy  EATOM  =     11706.16234457
  Solvation  Ediel_sol  =         0.00000000
  ---------------------------------------------------
  free energy    TOTEN  =      -102.25715696 eV

  energy without entropy =     -102.24500679  energy(sigma->0) =     -102.25310690


--------------------------------------------------------------------------------------------------------




--------------------------------------- Iteration      1(   6)  ---------------------------------------


    POTLOK:  cpu time    0.0190: real time    0.0236
    SETDIJ:  cpu time    0.0021: real time    0.0021
     EDDAV:  cpu time   11.0071: real time   11.0085
       DOS:  cpu time    0.0017: real time    0.0017
    CHARGE:  cpu time    0.3175: real time    0.3175
    MIXING:  cpu time    0.0007: real time    0.0007
    --------------------------------------------
      LOOP:  cpu time   11.3481: real time   11.3541

 eigenvalue-minimisations  : 12264
 total energy-change (2. order) : 0.4198775E+01  (-0.3449571E+01)
 number of electron     161.0000033 magnetization 
 augmentation part       49.5583927 magnetization 

 Broyden mixing:
  rms(total) = 0.30888E+01    rms(broyden)= 0.30887E+01
  rms(prec ) = 0.31799E+01
  weight for this iteration     100.00

 eigenvalues of (default mixing * dielectric matrix)
  average eigenvalue GAMMA=   1.2407
  1.2407

 Free energy of the ion-electron system (eV)
  ---------------------------------------------------
  alpha Z        PSCENC =       305.89839443
  Ewald energy   TEWEN  =     99026.97233169
  -Hartree energ DENC   =   -110901.58005883
  -exchange      EXHF   =         0.00000000
  -V(xc)+E(xc)   XCENC  =        44.65542311
  PAW double counting   =     12331.46415036   -11895.68110276
  entropy T*S    EENTRO =        -0.01811626
  eigenvalues    EBANDS =      -715.93174811
  atomic energy  EATOM  =     11706.16234457
  Solvation  Ediel_sol  =         0.00000000
  ---------------------------------------------------
  free energy    TOTEN  =       -98.05838181 eV

  energy without entropy =      -98.04026555  energy(sigma->0) =      -98.05234305


--------------------------------------------------------------------------------------------------------




--------------------------------------- Iteration      1(   7)  ---------------------------------------


    POTLOK:  cpu time    0.0167: real time    0.0193
    SETDIJ:  cpu time    0.0021: real time    0.0021
     EDDAV:  cpu time   11.8341: real time   11.8357
       DOS:  cpu time    0.0017: real time    0.0017
    CHARGE:  cpu time    0.3181: real time    0.3181
    MIXING:  cpu time    0.0007: real time    0.0007
    --------------------------------------------
      LOOP:  cpu time   12.1734: real time   12.1775

 eigenvalue-minimisations  : 13224
 total energy-change (2. order) :-0.2224656E+02  (-0.1781478E+02)
 number of electron     161.0000049 magnetization 
 augmentation part       48.9585713 magnetization 

 Broyden mixing:
  rms(total) = 0.43684E+01    rms(broyden)= 0.43682E+01
  rms(prec ) = 0.48967E+01
  weight for this iteration     100.00

 eigenvalues of (default mixing * dielectric matrix)
  average eigenvalue GAMMA=   1.1669
  2.0703  0.2634

 Free energy of the ion-electron system (eV)
  ---------------------------------------------------
  alpha Z        PSCENC =       305.89839443
  Ewald energy   TEWEN  =     99026.97233169
  -Hartree energ DENC   =   -111069.47927020
  -exchange      EXHF   =         0.00000000
  -V(xc)+E(xc)   XCENC  =        43.62818071
  PAW double counting   =     13217.79671944   -12792.07314831
  entropy T*S    EENTRO =         0.00911915
  eigenvalues    EBANDS =      -559.21961177
  atomic energy  EATOM  =     11706.16234457
  Solvation  Ediel_sol  =         0.00000000
  ---------------------------------------------------
  free energy    TOTEN  =      -120.30494031 eV

  energy without entropy =     -120.31405945  energy(sigma->0) =     -120.30798002


--------------------------------------------------------------------------------------------------------




--------------------------------------- Iteration      1(   8)  ---------------------------------------


    POTLOK:  cpu time    0.0179: real time    0.0181
    SETDIJ:  cpu time    0.0021: real time    0.0021
     EDDAV:  cpu time   12.5418: real time   12.5434
       DOS:  cpu time    0.0018: real time    0.0018
    CHARGE:  cpu time    0.3169: real time    0.3169
    MIXING:  cpu time    0.0006: real time    0.0006
    --------------------------------------------
      LOOP:  cpu time   12.8812: real time   12.8830

 eigenvalue-minimisations  : 14184
 total energy-change (2. order) : 0.1981648E+02  (-0.1183182E+02)
 number of electron     161.0000059 magnetization 
 augmentation part       50.4485409 magnetization 

 Broyden mixing:
  rms(total) = 0.21480E+01    rms(broyden)= 0.21478E+01
  rms(prec ) = 0.25008E+01
  weight for this iteration     100.00

 eigenvalues of (default mixing * dielectric matrix)
  average eigenvalue GAMMA=   0.9386
  2.1452  0.3665  0.3043

 Free energy of the ion-electron system (eV)
  ---------------------------------------------------
  alpha Z        PSCENC =       305.89839443
  Ewald energy   TEWEN  =     99026.97233169
  -Hartree energ DENC   =   -110917.66245405
  -exchange      EXHF   =         0.00000000
  -V(xc)+E(xc)   XCENC  =        42.71267512
  PAW double counting   =     14110.32426322   -13695.78005156
  entropy T*S    EENTRO =        -0.00101546
  eigenvalues    EBANDS =      -679.11494794
  atomic energy  EATOM  =     11706.16234457
  Solvation  Ediel_sol  =         0.00000000
  ---------------------------------------------------
  free energy    TOTEN  =      -100.48845999 eV

  energy without entropy =     -100.48744453  energy(sigma->0) =     -100.48812150


--------------------------------------------------------------------------------------------------------




--------------------------------------- Iteration      1(   9)  ---------------------------------------


    POTLOK:  cpu time    0.0172: real time    0.0172
    SETDIJ:  cpu time    0.0023: real time    0.0023
     EDDAV:  cpu time   12.1820: real time   12.1835
       DOS:  cpu time    0.0017: real time    0.0017
    CHARGE:  cpu time    0.3177: real time    0.3177
    MIXING:  cpu time    0.0006: real time    0.0006
    --------------------------------------------
      LOOP:  cpu time   12.5215: real time   12.5231

 eigenvalue-minimisations  : 13704
 total energy-change (2. order) :-0.5860909E+01  (-0.1416532E+02)
 number of electron     161.0000035 magnetization 
 augmentation part       50.1612917 magnetization 

 Broyden mixing:
  rms(total) = 0.27122E+01    rms(broyden)= 0.27121E+01
  rms(prec ) = 0.36175E+01
  weight for this iteration     100.00

 eigenvalues of (default mixing * dielectric matrix)
  average eigenvalue GAMMA=   0.8430
  2.2557  0.6833  0.2787  0.1542

 Free energy of the ion-electron system (eV)
  ---------------------------------------------------
  alpha Z        PSCENC =       305.89839443
  Ewald energy   TEWEN  =     99026.97233169
  -Hartree energ DENC   =   -110887.62202612
  -exchange      EXHF   =         0.00000000
  -V(xc)+E(xc)   XCENC  =        42.80969193
  PAW double counting   =     14266.97169504   -13853.11125015
  entropy T*S    EENTRO =        -0.00616567
  eigenvalues    EBANDS =      -714.42438426
  atomic energy  EATOM  =     11706.16234457
  Solvation  Ediel_sol  =         0.00000000
  ---------------------------------------------------
  free energy    TOTEN  =      -106.34936854 eV

  energy without entropy =     -106.34320287  energy(sigma->0) =     -106.34731332


--------------------------------------------------------------------------------------------------------




--------------------------------------- Iteration      1(  10)  ---------------------------------------


    POTLOK:  cpu time    0.0169: real time    0.0169
    SETDIJ:  cpu time    0.0021: real time    0.0021
     EDDAV:  cpu time   12.9312: real time   12.9327
       DOS:  cpu time    0.0018: real time    0.0018
    CHARGE:  cpu time    0.3172: real time    0.3173
    MIXING:  cpu time    0.0007: real time    0.0007
    --------------------------------------------
      LOOP:  cpu time   13.2699: real time   13.2714

 eigenvalue-minimisations  : 14616
 total energy-change (2. order) : 0.5468332E+01  (-0.1032401E+02)
 number of electron     161.0000027 magnetization 
 augmentation part       50.4338387 magnetization 

 Broyden mixing:
  rms(total) = 0.22412E+01    rms(broyden)= 0.22411E+01
  rms(prec ) = 0.27385E+01
  weight for this iteration     100.00

 eigenvalues of (default mixing * dielectric matrix)
  average eigenvalue GAMMA=   0.7718
  2.3146  0.9220  0.2525  0.2525  0.1175

 Free energy of the ion-electron system (eV)
  ---------------------------------------------------
  alpha Z        PSCENC =       305.89839443
  Ewald energy   TEWEN  =     99026.97233169
  -Hartree energ DENC   =   -110915.55304395
  -exchange      EXHF   =         0.00000000
  -V(xc)+E(xc)   XCENC  =        43.00039270
  PAW double counting   =     14426.62801004   -14013.18666379
  entropy T*S    EENTRO =        -0.01897188
  eigenvalues    EBANDS =      -680.78383073
  atomic energy  EATOM  =     11706.16234457
  Solvation  Ediel_sol  =         0.00000000
  ---------------------------------------------------
  free energy    TOTEN  =      -100.88103693 eV

  energy without entropy =     -100.86206505  energy(sigma->0) =     -100.87471297


--------------------------------------------------------------------------------------------------------




--------------------------------------- Iteration      1(  11)  ---------------------------------------


    POTLOK:  cpu time    0.0172: real time    0.0233
    SETDIJ:  cpu time    0.0021: real time    0.0021
     EDDAV:  cpu time   13.8077: real time   13.8094
       DOS:  cpu time    0.0017: real time    0.0017
    CHARGE:  cpu time    0.3178: real time    0.3179
    MIXING:  cpu time    0.0008: real time    0.0008
    --------------------------------------------
      LOOP:  cpu time   14.1474: real time   14.1552

 eigenvalue-minimisations  : 15696
 total energy-change (2. order) : 0.3875879E+01  (-0.4241121E+01)
 number of electron     161.0000032 magnetization 
 augmentation part       50.1901152 magnetization 

 Broyden mixing:
  rms(total) = 0.12234E+01    rms(broyden)= 0.12233E+01
  rms(prec ) = 0.14721E+01
  weight for this iteration     100.00

 eigenvalues of (default mixing * dielectric matrix)
  average eigenvalue GAMMA=   0.7002
  2.0932  0.9041  0.4960  0.3004  0.3004  0.1070

 Free energy of the ion-electron system (eV)
  ---------------------------------------------------
  alpha Z        PSCENC =       305.89839443
  Ewald energy   TEWEN  =     99026.97233169
  -Hartree energ DENC   =   -110925.80489665
  -exchange      EXHF   =         0.00000000
  -V(xc)+E(xc)   XCENC  =        43.06715333
  PAW double counting   =     14552.12952637   -14139.03869703
  entropy T*S    EENTRO =        -0.02027900
  eigenvalues    EBANDS =      -666.37103531
  atomic energy  EATOM  =     11706.16234457
  Solvation  Ediel_sol  =         0.00000000
  ---------------------------------------------------
  free energy    TOTEN  =       -97.00515759 eV

  energy without entropy =      -96.98487859  energy(sigma->0) =      -96.99839792


--------------------------------------------------------------------------------------------------------




--------------------------------------- Iteration      1(  12)  ---------------------------------------


    POTLOK:  cpu time    0.0188: real time    0.0210
    SETDIJ:  cpu time    0.0021: real time    0.0021
     EDDAV:  cpu time   12.7533: real time   12.7550
       DOS:  cpu time    0.0018: real time    0.0018
    CHARGE:  cpu time    0.3174: real time    0.3174
    MIXING:  cpu time    0.0008: real time    0.0008
    --------------------------------------------
      LOOP:  cpu time   13.0943: real time   13.0982

 eigenvalue-minimisations  : 14544
 total energy-change (2. order) : 0.7155603E+00  (-0.1237705E+01)
 number of electron     161.0000037 magnetization 
 augmentation part       50.1670998 magnetization 

 Broyden mixing:
  rms(total) = 0.89682E+00    rms(broyden)= 0.89674E+00
  rms(prec ) = 0.99541E+00
  weight for this iteration     100.00

 eigenvalues of (default mixing * dielectric matrix)
  average eigenvalue GAMMA=   0.6381
  2.0798  0.7126  0.7126  0.3785  0.2377  0.2377  0.1079

 Free energy of the ion-electron system (eV)
  ---------------------------------------------------
  alpha Z        PSCENC =       305.89839443
  Ewald energy   TEWEN  =     99026.97233169
  -Hartree energ DENC   =   -110916.49569078
  -exchange      EXHF   =         0.00000000
  -V(xc)+E(xc)   XCENC  =        43.15590514
  PAW double counting   =     14437.88578841   -14023.69454660
  entropy T*S    EENTRO =        -0.00699195
  eigenvalues    EBANDS =      -676.16713220
  atomic energy  EATOM  =     11706.16234457
  Solvation  Ediel_sol  =         0.00000000
  ---------------------------------------------------
  free energy    TOTEN  =       -96.28959730 eV

  energy without entropy =      -96.28260534  energy(sigma->0) =      -96.28726665


--------------------------------------------------------------------------------------------------------




--------------------------------------- Iteration      1(  13)  ---------------------------------------


    POTLOK:  cpu time    0.0175: real time    0.0175
    SETDIJ:  cpu time    0.0021: real time    0.0021
     EDDAV:  cpu time   12.6541: real time   12.6558
       DOS:  cpu time    0.0018: real time    0.0018
    CHARGE:  cpu time    0.3178: real time    0.3178
    MIXING:  cpu time    0.0008: real time    0.0008
    --------------------------------------------
      LOOP:  cpu time   12.9941: real time   12.9959

 eigenvalue-minimisations  : 14424
 total energy-change (2. order) : 0.5540957E+00  (-0.2746532E+00)
 number of electron     161.0000037 magnetization 
 augmentation part       50.1355917 magnetization 

 Broyden mixing:
  rms(total) = 0.47966E+00    rms(broyden)= 0.47963E+00
  rms(prec ) = 0.52707E+00
  weight for this iteration     100.00

 eigenvalues of (default mixing * dielectric matrix)
  average eigenvalue GAMMA=   0.6838
  2.1192  1.0608  0.6971  0.6971  0.2608  0.2608  0.2669  0.1079

 Free energy of the ion-electron system (eV)
  ---------------------------------------------------
  alpha Z        PSCENC =       305.89839443
  Ewald energy   TEWEN  =     99026.97233169
  -Hartree energ DENC   =   -110920.33406188
  -exchange      EXHF   =         0.00000000
  -V(xc)+E(xc)   XCENC  =        43.21723498
  PAW double counting   =     14412.84369169   -13998.50040718
  entropy T*S    EENTRO =        -0.01623140
  eigenvalues    EBANDS =      -671.97879846
  atomic energy  EATOM  =     11706.16234457
  Solvation  Ediel_sol  =         0.00000000
  ---------------------------------------------------
  free energy    TOTEN  =       -95.73550156 eV

  energy without entropy =      -95.71927016  energy(sigma->0) =      -95.73009110


--------------------------------------------------------------------------------------------------------




--------------------------------------- Iteration      1(  14)  ---------------------------------------


    POTLOK:  cpu time    0.0170: real time    0.0170
    SETDIJ:  cpu time    0.0021: real time    0.0021
     EDDAV:  cpu time   10.6852: real time   10.6865
       DOS:  cpu time    0.0018: real time    0.0018
    CHARGE:  cpu time    0.3174: real time    0.3174
    MIXING:  cpu time    0.0009: real time    0.0009
    --------------------------------------------
      LOOP:  cpu time   11.0243: real time   11.0257

 eigenvalue-minimisations  : 11856
 total energy-change (2. order) : 0.1276380E+00  (-0.1547677E+00)
 number of electron     161.0000040 magnetization 
 augmentation part       50.1040118 magnetization 

 Broyden mixing:
  rms(total) = 0.33645E+00    rms(broyden)= 0.33640E+00
  rms(prec ) = 0.35882E+00
  weight for this iteration     100.00

 eigenvalues of (default mixing * dielectric matrix)
  average eigenvalue GAMMA=   0.6574
  2.0683  1.0552  0.8130  0.8130  0.3177  0.2606  0.2606  0.1079  0.2204

 Free energy of the ion-electron system (eV)
  ---------------------------------------------------
  alpha Z        PSCENC =       305.89839443
  Ewald energy   TEWEN  =     99026.97233169
  -Hartree energ DENC   =   -110931.17988811
  -exchange      EXHF   =         0.00000000
  -V(xc)+E(xc)   XCENC  =        43.19136000
  PAW double counting   =     14392.95262802   -13978.84851953
  entropy T*S    EENTRO =        -0.01065967
  eigenvalues    EBANDS =      -660.74585497
  atomic energy  EATOM  =     11706.16234457
  Solvation  Ediel_sol  =         0.00000000
  ---------------------------------------------------
  free energy    TOTEN  =       -95.60786358 eV

  energy without entropy =      -95.59720391  energy(sigma->0) =      -95.60431036


--------------------------------------------------------------------------------------------------------




--------------------------------------- Iteration      1(  15)  ---------------------------------------


    POTLOK:  cpu time    0.0169: real time    0.0169
    SETDIJ:  cpu time    0.0021: real time    0.0021
     EDDAV:  cpu time   12.3718: real time   12.3735
       DOS:  cpu time    0.0018: real time    0.0018
    CHARGE:  cpu time    0.3177: real time    0.3177
    MIXING:  cpu time    0.0009: real time    0.0009
    --------------------------------------------
      LOOP:  cpu time   12.7113: real time   12.7129

 eigenvalue-minimisations  : 13920
 total energy-change (2. order) : 0.3759592E-01  (-0.2105088E-01)
 number of electron     161.0000040 magnetization 
 augmentation part       50.0904486 magnetization 

 Broyden mixing:
  rms(total) = 0.24538E+00    rms(broyden)= 0.24537E+00
  rms(prec ) = 0.26958E+00
  weight for this iteration     100.00

 eigenvalues of (default mixing * dielectric matrix)
  average eigenvalue GAMMA=   0.6655
  1.9056  1.0916  1.0916  0.8234  0.4198  0.4198  0.1079  0.2693  0.2693  0.2564

 Free energy of the ion-electron system (eV)
  ---------------------------------------------------
  alpha Z        PSCENC =       305.89839443
  Ewald energy   TEWEN  =     99026.97233169
  -Hartree energ DENC   =   -110935.06215879
  -exchange      EXHF   =         0.00000000
  -V(xc)+E(xc)   XCENC  =        43.21078329
  PAW double counting   =     14352.18933550   -13937.95809202
  entropy T*S    EENTRO =        -0.01204210
  eigenvalues    EBANDS =      -656.97116422
  atomic energy  EATOM  =     11706.16234457
  Solvation  Ediel_sol  =         0.00000000
  ---------------------------------------------------
  free energy    TOTEN  =       -95.57026766 eV

  energy without entropy =      -95.55822556  energy(sigma->0) =      -95.56625363


--------------------------------------------------------------------------------------------------------




--------------------------------------- Iteration      1(  16)  ---------------------------------------


    POTLOK:  cpu time    0.0171: real time    0.0238
    SETDIJ:  cpu time    0.0021: real time    0.0021
     EDDAV:  cpu time   12.2663: real time   12.2678
       DOS:  cpu time    0.0018: real time    0.0018
    CHARGE:  cpu time    0.3176: real time    0.3177
    MIXING:  cpu time    0.0011: real time    0.0011
    --------------------------------------------
      LOOP:  cpu time   12.6060: real time   12.6143

 eigenvalue-minimisations  : 13944
 total energy-change (2. order) : 0.1633121E-01  (-0.3504561E-02)
 number of electron     161.0000040 magnetization 
 augmentation part       50.0855222 magnetization 

 Broyden mixing:
  rms(total) = 0.16360E+00    rms(broyden)= 0.16360E+00
  rms(prec ) = 0.18275E+00
  weight for this iteration     100.00

 eigenvalues of (default mixing * dielectric matrix)
  average eigenvalue GAMMA=   0.7762
[...]
     86      -0.3533     -0.02043
     87       0.6581     -0.00000
     88       1.1509     -0.00000
     89       1.3722     -0.00000
     90       1.5264     -0.00000
     91       1.8319     -0.00000
     92       1.9725     -0.00000
     93       2.4637     -0.00000
     94       2.8756     -0.00000
     95       3.1380     -0.00000
     96       3.9084     -0.00000

 k-point    51 :      -0.4375    0.4375    0.0000
  band No.  band energies     occupation 
      1      -8.2763      2.00000
      2      -8.1843      2.00000
      3      -7.2907      2.00000
      4      -7.1954      2.00000
      5      -6.7919      2.00000
      6      -6.6537      2.00000
      7      -6.4964      2.00000
      8      -6.3844      2.00000
      9      -6.3265      2.00000
     10      -6.2408      2.00000
     11      -6.1805      2.00000
     12      -6.1034      2.00000
     13      -6.0869      2.00000
     14      -5.9449      2.00000
     15      -5.8813      2.00000
     16      -5.7308      2.00000
     17      -5.6592      2.00000
     18      -5.6280      2.00000
     19      -5.5177      2.00000
     20      -5.4444      2.00000
     21      -5.3077      2.00000
     22      -5.2694      2.00000
     23      -5.2137      2.00000
     24      -5.1075      2.00000
     25      -5.0466      2.00000
     26      -5.0210      2.00000
     27      -4.9864      2.00000
     28      -4.9244      2.00000
     29      -4.7877      2.00000
     30      -4.6091      2.00000
     31      -4.5526      2.00000
     32      -4.5195      2.00000
     33      -4.4402      2.00000
     34      -4.4059      2.00000
     35      -4.2975      2.00000
     36      -4.2305      2.00000
     37      -4.1329      2.00000
     38      -4.1058      2.00000
     39      -4.0437      2.00000
     40      -4.0041      2.00000
     41      -3.9295      2.00000
     42      -3.8525      2.00000
     43      -3.8210      2.00000
     44      -3.7032      2.00000
     45      -3.6705      2.00000
     46      -3.6070      2.00000
     47      -3.5900      2.00000
     48      -3.5645      2.00000
     49      -3.5249      2.00000
     50      -3.4993      2.00000
     51      -3.3675      2.00000
     52      -3.3356      2.00000
     53      -3.2226      2.00000
     54      -3.1073      2.00000
     55      -2.9813      2.00000
     56      -2.8654      2.00000
     57      -2.7948      2.00000
     58      -2.7585      2.00000
     59      -2.6787      2.00000
     60      -2.5731      2.00000
     61      -2.4844      2.00000
     62      -2.4055      2.00000
     63      -2.3359      2.00000
     64      -2.2650      2.00000
     65      -2.1556      2.00000
     66      -2.1231      2.00000
     67      -2.1071      2.00000
     68      -1.9859      2.00000
     69      -1.9021      2.00000
     70      -1.8330      2.00000
     71      -1.8120      2.00000
     72      -1.7401      2.00000
     73      -1.6343      2.00000
     74      -1.5240      2.00000
     75      -1.4579      2.00000
     76      -1.3381      2.00018
     77      -1.1875      2.00658
     78      -1.1311      2.01774
     79      -0.9748      2.07043
     80      -0.9429      2.05534
     81      -0.8267      1.67727
     82      -0.7473      1.08154
     83      -0.6776      0.51642
     84      -0.5826      0.03318
     85      -0.4587     -0.06394
     86      -0.3751     -0.02789
     87       0.2544     -0.00000
     88       0.5701     -0.00000
     89       0.8452     -0.00000
     90       1.5501     -0.00000
     91       1.6340     -0.00000
     92       2.3731     -0.00000
     93       2.7257     -0.00000
     94       3.2870     -0.00000
     95       3.5531     -0.00000
     96       4.0230     -0.00000

 k-point    52 :      -0.4375    0.1250    0.0000
  band No.  band energies     occupation 
      1      -8.2765      2.00000
      2      -8.1816      2.00000
      3      -7.2968      2.00000
      4      -7.2000      2.00000
      5      -6.8096      2.00000
      6      -6.6157      2.00000
      7      -6.4787      2.00000
      8      -6.4419      2.00000
      9      -6.3071      2.00000
     10      -6.2314      2.00000
     11      -6.1944      2.00000
     12      -6.1323      2.00000
     13      -6.0797      2.00000
     14      -5.9606      2.00000
     15      -5.8592      2.00000
     16      -5.7685      2.00000
     17      -5.6608      2.00000
     18      -5.6289      2.00000
     19      -5.4872      2.00000
     20      -5.4374      2.00000
     21      -5.2878      2.00000
     22      -5.2329      2.00000
     23      -5.1283      2.00000
     24      -5.1007      2.00000
     25      -5.0403      2.00000
     26      -4.9917      2.00000
     27      -4.9358      2.00000
     28      -4.9267      2.00000
     29      -4.8299      2.00000
     30      -4.6718      2.00000
     31      -4.5438      2.00000
     32      -4.5065      2.00000
     33      -4.4717      2.00000
     34      -4.4093      2.00000
     35      -4.3364      2.00000
     36      -4.2417      2.00000
     37      -4.1905      2.00000
     38      -4.1290      2.00000
     39      -4.0751      2.00000
     40      -4.0171      2.00000
     41      -3.9208      2.00000
     42      -3.8737      2.00000
     43      -3.8006      2.00000
     44      -3.7050      2.00000
     45      -3.6723      2.00000
     46      -3.6185      2.00000
     47      -3.5654      2.00000
     48      -3.5492      2.00000
     49      -3.5422      2.00000
     50      -3.4997      2.00000
     51      -3.3500      2.00000
     52      -3.2589      2.00000
     53      -3.2472      2.00000
     54      -3.1300      2.00000
     55      -2.9749      2.00000
     56      -2.8720      2.00000
     57      -2.8110      2.00000
     58      -2.7706      2.00000
     59      -2.6648      2.00000
     60      -2.5488      2.00000
     61      -2.5211      2.00000
     62      -2.4648      2.00000
     63      -2.2864      2.00000
     64      -2.2417      2.00000
     65      -2.1901      2.00000
     66      -2.0984      2.00000
     67      -2.0614      2.00000
     68      -1.9890      2.00000
     69      -1.9046      2.00000
     70      -1.8218      2.00000
     71      -1.7533      2.00000
     72      -1.7311      2.00000
     73      -1.6950      2.00000
     74      -1.5061      2.00000
     75      -1.3985      2.00003
     76      -1.2962      2.00057
     77      -1.2823      2.00081
     78      -1.1314      2.01764
     79      -1.0475      2.05079
     80      -0.8964      1.97687
     81      -0.8913      1.96300
     82      -0.7220      0.86795
     83      -0.6433      0.29209
     84      -0.5233     -0.06211
     85      -0.5203     -0.06387
     86      -0.3234     -0.01263
     87       0.2369     -0.00000
     88       0.5609     -0.00000
     89       0.8177     -0.00000
     90       1.5630     -0.00000
     91       1.5939     -0.00000
     92       2.3818     -0.00000
     93       2.7351     -0.00000
     94       3.2719     -0.00000
     95       3.5637     -0.00000
     96       4.0459     -0.00000


--------------------------------------------------------------------------------------------------------


 soft charge-density along one line, spin component           1
         0         1         2         3         4         5         6         7         8         9
 total charge-density along one line
 
 pseudopotential strength for first ion, spin component:           1
 -8.275   0.000   0.002  -0.012  -0.000  -8.485   0.000   0.002
  0.000  -8.201  -0.001  -0.003  -0.012   0.000  -8.412  -0.001
  0.002  -0.001  -8.204   0.001  -0.001   0.002  -0.001  -8.416
 -0.012  -0.003   0.001  -8.197   0.000  -0.012  -0.003   0.001
 -0.000  -0.012  -0.001   0.000  -8.275  -0.000  -0.012  -0.001
 -8.485   0.000   0.002  -0.012  -0.000  -8.681  -0.000   0.002
  0.000  -8.412  -0.001  -0.003  -0.012  -0.000  -8.609  -0.001
  0.002  -0.001  -8.416   0.001  -0.001   0.002  -0.001  -8.613
 -0.012  -0.003   0.001  -8.409   0.000  -0.012  -0.003   0.001
 -0.000  -0.012  -0.001   0.000  -8.486  -0.000  -0.012  -0.001
  0.001   0.000  -0.020  -0.000  -0.001   0.001   0.000  -0.020
  0.001   0.000  -0.031  -0.001  -0.001   0.001   0.000  -0.031
 -0.000  -0.008  -0.000  -0.000   0.000  -0.000  -0.007  -0.000
 -0.000   0.000  -0.014  -0.000   0.000  -0.000   0.000  -0.014
  0.000  -0.000   0.000  -0.008  -0.000   0.000  -0.000   0.000
 -0.000  -0.007  -0.000  -0.000   0.000  -0.000  -0.007  -0.000
 -0.000   0.000  -0.017  -0.000   0.000  -0.000   0.000  -0.017
  0.000  -0.000   0.000  -0.007  -0.000   0.000  -0.000   0.000
 total augmentation occupancy for first ion, spin component:           1
  2.600  -0.008  -0.002  -0.309  -0.012  -1.831   0.005  -0.000   0.103   0.006  -0.003   0.001   0.001   0.000  -0.037  -0.000
 -0.008   3.375  -0.008  -0.039  -0.319   0.005  -1.839   0.002   0.022   0.114  -0.005   0.001  -0.221  -0.000   0.002   0.006
 -0.002  -0.008   3.446   0.013   0.001   0.000   0.002  -2.214  -0.004  -0.000   0.671  -0.063  -0.000  -0.213   0.001   0.000
 -0.309  -0.039   0.013   3.420  -0.008   0.109   0.022  -0.004  -1.865   0.005   0.009  -0.001   0.002   0.001  -0.223   0.000
 -0.012  -0.319   0.001  -0.008   2.586   0.006   0.108   0.000   0.005  -1.824   0.002  -0.000  -0.036  -0.000   0.001   0.003
 -1.831   0.005   0.000   0.109   0.006   2.493  -0.003   0.001   0.033  -0.003   0.001   0.001  -0.000   0.000   0.040  -0.000
  0.005  -1.839   0.002   0.022   0.108  -0.003   1.908  -0.000  -0.014   0.029   0.003  -0.000   0.216   0.000  -0.001  -0.015
 -0.000   0.002  -2.214  -0.004   0.000   0.001  -0.000   2.512   0.001  -0.001  -0.711   0.092   0.000   0.308  -0.000  -0.000
  0.103   0.022  -0.004  -1.865   0.005   0.033  -0.014   0.001   1.924  -0.003  -0.005   0.001  -0.001  -0.001   0.217  -0.000
  0.006   0.114  -0.000   0.005  -1.824  -0.003   0.029  -0.001  -0.003   2.490  -0.001  -0.000   0.039  -0.000  -0.000  -0.003
 -0.003  -0.005   0.671   0.009   0.002   0.001   0.003  -0.711  -0.005  -0.001   2.076  -0.336  -0.000   0.167   0.000   0.000
  0.001   0.001  -0.063  -0.001  -0.000   0.001  -0.000   0.092   0.001  -0.000  -0.336   0.072  -0.000  -0.048   0.000   0.000
  0.001  -0.221  -0.000   0.002  -0.036  -0.000   0.216   0.000  -0.001   0.039  -0.000  -0.000   0.263   0.000  -0.000  -0.014
  0.000  -0.000  -0.213   0.001  -0.000   0.000   0.000   0.308  -0.001  -0.000   0.167  -0.048   0.000   0.141  -0.000  -0.000
 -0.037   0.002   0.001  -0.223   0.001   0.040  -0.001  -0.000   0.217  -0.000   0.000   0.000  -0.000  -0.000   0.263   0.000
 -0.000   0.006   0.000   0.000   0.003  -0.000  -0.015  -0.000  -0.000  -0.003   0.000   0.000  -0.014  -0.000   0.000   0.001
  0.000   0.000  -0.005  -0.000  -0.000  -0.000  -0.000  -0.018   0.000   0.000  -0.018   0.004  -0.000  -0.009   0.000   0.000
  0.003   0.000  -0.000   0.006  -0.000  -0.003  -0.000   0.000  -0.015  -0.000  -0.000  -0.000   0.000   0.000  -0.014  -0.000


------------------------ aborting loop because EDIFF is reached ----------------------------------------



 DIPCOR: dipole corrections for dipol
 direction  3 min pos   281,
 dipolmoment           0.000000      0.000000     -0.051008 electrons x Angstroem
 Tr[quadrupol]      -954.198990

 energy correction for charged system         0.000000 eV
 dipol+quadrupol energy correction            0.000286 eV
 added-field ion interaction          0.000000 eV  (added to PSCEN)

 
  *************** adding dipol energy to TOTEN NOW **************** 
    CHARGE:  cpu time    0.3182: real time    0.3182
    FORLOC:  cpu time    0.0027: real time    0.0027
    FORNL :  cpu time    4.6346: real time    4.6350
    STRESS:  cpu time    8.3284: real time    8.3292
    FORCOR:  cpu time    0.0182: real time    0.0182
    FORHAR:  cpu time    0.0059: real time    0.0059
    MIXING:  cpu time    0.0024: real time    0.0024
    OFIELD:  cpu time    0.0001: real time    0.0001

  FORCE on cell =-STRESS in cart. coord.  units (eV):
  Direction    XX          YY          ZZ          XY          YZ          ZX
  --------------------------------------------------------------------------------------
  Alpha Z   305.89839   305.89839   305.89839
  Ewald  107899.62012107900.47387************     0.73937    -0.74172     1.28470
  Hartree110244.20488110244.87472************     0.58009    -0.72894     1.26257
  E(xc)    -712.73841  -712.72850  -717.24967     0.00866     0.03832    -0.06638
  Local  ************************223457.82459    -1.35053     2.52960    -4.38149
  n-local    61.60704    54.78093    43.85784     2.12905    -0.67295     0.17220
  augment   835.34490   835.32004   859.74047    -0.02310    -0.36002     0.62170
  Kinetic  2295.64685  2291.48647  2354.67473     1.10955    -1.19044     1.26696
  Fock        0.00000     0.00000     0.00000     0.00000     0.00000     0.00000
  -------------------------------------------------------------------------------------
  Total     -11.25198   -11.24703    -0.73553     0.00429    -0.35170     0.60917
  in kB     -21.87484   -21.86522    -1.42994     0.00834    -0.68374     1.18427
  external pressure =      -15.06 kB  Pullay stress =        0.00 kB


 VOLUME and BASIS-vectors are now :
 -----------------------------------------------------------------------------
  energy-cutoff  :      350.00
  volume of cell :      824.13
      direct lattice vectors                 reciprocal lattice vectors
     5.557859300  0.000000000  0.000000000     0.179925390 -0.103879972  0.000000000
     2.778929650  4.813247345  0.000000000     0.000000000  0.207759944  0.000000000
     0.000000000  0.000000000 30.806959674     0.000000000  0.000000000  0.032460198

  length of vectors
     5.557859300  5.557859300 30.806959674     0.207759944  0.207759944  0.032460198


 FORCES acting on ions
    electron-ion (+dipol)            ewald-force                    non-local-force                 convergence-correction
 -----------------------------------------------------------------------------------------------
   0.227E+00 -.131E+00 0.258E+04   -.215E+00 0.124E+00 -.258E+04   -.425E-03 0.245E-03 -.175E+00   0.156E-04 -.904E-05 0.103E-02
   -.265E+00 -.274E+01 0.286E+04   0.239E+00 0.278E+01 -.286E+04   0.108E-01 0.859E-01 -.774E+00   -.192E-04 -.872E-04 0.127E-02
   -.230E+01 0.133E+01 0.286E+04   0.229E+01 -.132E+01 -.286E+04   0.945E-01 -.546E-01 -.680E+00   -.622E-04 0.359E-04 0.106E-02
   0.224E+01 0.160E+01 0.286E+04   -.229E+01 -.160E+01 -.286E+04   -.690E-01 -.523E-01 -.774E+00   0.659E-04 0.602E-04 0.127E-02
   0.370E+01 -.341E+01 0.102E+04   -.389E+01 0.352E+01 -.102E+04   0.504E-01 -.168E-03 -.406E+00   -.204E-03 0.322E-03 -.986E-02
   -.370E+01 0.214E+01 0.102E+04   0.389E+01 -.225E+01 -.102E+04   -.668E-01 0.385E-01 -.475E+00   0.201E-03 -.116E-03 -.943E-02
   0.480E+01 -.150E+01 0.102E+04   -.499E+01 0.161E+01 -.102E+04   0.253E-01 -.435E-01 -.406E+00   -.381E-03 0.161E-04 -.986E-02
   -.465E+01 0.269E+01 0.103E+04   0.476E+01 -.275E+01 -.103E+04   0.292E-02 -.169E-02 0.113E+00   0.396E-03 -.229E-03 -.960E-02
   0.171E+00 0.358E+00 -.900E+03   -.146E+00 -.732E+00 0.900E+03   -.505E-01 0.399E+00 0.142E+00   0.334E-03 -.521E-03 -.192E-01
   -.612E-01 0.353E-01 -.896E+03   0.319E-01 -.184E-01 0.896E+03   0.786E-01 -.454E-01 0.454E+00   -.331E-03 0.191E-03 -.197E-01
   -.225E+00 -.327E+00 -.900E+03   0.561E+00 0.493E+00 0.900E+03   -.371E+00 -.156E+00 0.142E+00   0.618E-03 -.292E-04 -.192E-01
   0.424E+01 -.245E+01 -.281E+04   -.421E+01 0.243E+01 0.282E+04   -.891E-01 0.514E-01 -.640E+01   -.712E-05 0.411E-05 -.859E-02
   -.469E+01 -.605E+01 -.280E+04   0.495E+01 0.605E+01 0.279E+04   -.145E+00 0.103E+00 0.129E+01   0.142E-04 -.122E-03 -.949E-02
   -.289E+01 0.167E+01 -.279E+04   0.280E+01 -.161E+01 0.279E+04   0.137E+00 -.789E-01 0.112E+01   -.934E-04 0.539E-04 -.927E-02
   0.289E+01 0.708E+01 -.280E+04   -.277E+01 -.731E+01 0.279E+04   -.161E+00 0.741E-01 0.129E+01   0.113E-03 0.488E-04 -.949E-02
   0.674E+00 -.389E+00 -.990E+03   -.939E+00 0.542E+00 0.990E+03   0.292E+00 -.168E+00 0.156E+00   -.692E-03 0.400E-03 -.215E-01
   0.871E-01 -.503E-01 -.377E+03   -.556E-01 0.321E-01 0.380E+03   0.104E-01 -.602E-02 -.311E+01   -.415E-05 0.239E-05 -.381E-05
 -----------------------------------------------------------------------------------------------
   0.251E+00 -.145E+00 0.863E+01   -.786E-14 0.278E-13 0.131E-11   -.251E+00 0.145E+00 -.849E+01   -.361E-04 0.209E-04 -.151E+00
 
 
 POSITION                                       TOTAL-FORCE (eV/Angst)
 -----------------------------------------------------------------------------------
      0.00000      0.00000     12.00000         0.011941     -0.006894      1.241337
      2.77893      0.00000     12.00000        -0.015578      0.127117     -0.099951
      1.38946      2.40662     12.00000         0.086355     -0.049857     -0.320742
      4.16839      2.40662     12.00000        -0.117876     -0.050068     -0.099951
      1.38832      0.80154     14.33833        -0.142043      0.107794     -0.481404
      4.16954      0.80154     14.33833         0.123406     -0.071249     -0.234669
      2.77893      3.21016     14.33833        -0.164374      0.069116     -0.481404
      5.55786      3.20883     14.30267         0.108662     -0.062736     -0.023638
      5.55786      1.59830     16.63736        -0.025718      0.023899      0.032490
      2.77893      1.60442     16.63406         0.048993     -0.028286     -0.209723
      6.95262      4.01410     16.63736        -0.033556      0.010323      0.032490
      0.00000      0.00000     19.07085        -0.064742      0.037379      0.128477
      5.55786      4.80856     18.94595         0.114919      0.107433      0.228670
      6.94326      2.40897     18.94595         0.036998     -0.021361     -0.086794
      4.17246      2.40897     18.94595        -0.035581     -0.153239      0.228670
      4.16310      4.01410     16.63736         0.026344     -0.015210      0.160080
      0.00000      0.00000     20.62632         0.041850     -0.024162     -0.013938
 -----------------------------------------------------------------------------------
    total drift:                               -0.000007      0.000003     -0.003778


--------------------------------------------------------------------------------------------------------



  FREE ENERGIE OF THE ION-ELECTRON SYSTEM (eV)
  ---------------------------------------------------
  free  energy   TOTEN  =       -95.53209189 eV

  energy  without entropy=      -95.51898940  energy(sigma->0) =      -95.52772439
 


--------------------------------------------------------------------------------------------------------


    POTLOK:  cpu time    0.0198: real time    0.0198


--------------------------------------------------------------------------------------------------------


     LOOP+:  cpu time  375.6714: real time  375.7863
    4ORBIT:  cpu time    0.0000: real time    0.0000

 total amount of memory used by VASP MPI-rank0   455244. kBytes
=======================================================================

   base      :      30000. kBytes
   nonl-proj :     372843. kBytes
   fftplans  :       2015. kBytes
   grid      :       8030. kBytes
   one-center:        264. kBytes
   wavefun   :      42092. kBytes
 
  
  
 General timing and accounting informations for this job:
 ========================================================
  
                  Total CPU time used (sec):      381.138
                            User time (sec):      379.894
                          System time (sec):        1.244
                         Elapsed time (sec):      381.399
  
                   Maximum memory used (kb):      494932.
                   Average memory used (kb):           0.
  
                          Minor page faults:        76124
                          Major page faults:            0
                 Voluntary context switches:          999
