  16  16   0   0
  0.5150799E+02  0.5557859E-09  0.5557859E-09  0.3080696E-08  0.5000000E-15
  1.000000000000000E-004
  CAR 
 unknown system                          
      6.51609596    -12.18509588  301     -0.79498963      1.00000000
    -12.185  0.0000E+00  0.0000E+00
    -12.123  0.0000E+00  0.0000E+00
    -12.060  0.0000E+00  0.0000E+00
    -11.998  0.0000E+00  0.0000E+00
    -11.936  0.0000E+00  0.0000E+00
    -11.873  0.0000E+00  0.0000E+00
    -11.811 -0.4538E-28 -0.2829E-29
    -11.749 -0.6273E-26 -0.3938E-27
    -11.686 -0.7144E-24 -0.4493E-25
    -11.624 -0.6688E-22 -0.4214E-23
    -11.562 -0.5145E-20 -0.3249E-21
    -11.499 -0.3252E-18 -0.2060E-19
    -11.437 -0.1688E-16 -0.1073E-17
    -11.375 -0.7198E-15 -0.4595E-16
    -11.312 -0.2442E-13 -0.1568E-14
    -11.250 -0.6987E-12 -0.4512E-13
    -11.188 -0.1639E-10 -0.1067E-11
    -11.125 -0.3149E-09 -0.2070E-10
    -11.063 -0.4953E-08 -0.3294E-09
    -11.001 -0.6366E-07 -0.4298E-08
    -10.938 -0.6679E-06 -0.4593E-07
    -10.876 -0.5706E-05 -0.4016E-06
    -10.814 -0.3958E-04 -0.2869E-05
    -10.751 -0.2219E-03 -0.1670E-04
    -10.689 -0.9993E-03 -0.7900E-04
    -10.627 -0.3573E-02 -0.3018E-03
    -10.564 -0.9946E-02 -0.9217E-03
    -10.502 -0.2065E-01 -0.2209E-02
    -10.440 -0.2833E-01 -0.3975E-02
    -10.377 -0.1119E-01 -0.4672E-02
    -10.315  0.6106E-01 -0.8662E-03
    -10.253  0.2032E+00  0.1180E-01
    -10.190  0.3943E+00  0.3638E-01
    -10.128  0.5908E+00  0.7321E-01
    -10.066  0.7584E+00  0.1205E+00
    -10.003  0.8784E+00  0.1752E+00
     -9.941  0.9330E+00  0.2334E+00
     -9.879  0.9102E+00  0.2901E+00
     -9.816  0.8300E+00  0.3419E+00
     -9.754  0.7541E+00  0.3889E+00
     -9.692  0.7581E+00  0.4361E+00
     -9.629  0.8695E+00  0.4903E+00
     -9.567  0.1020E+01  0.5539E+00
     -9.505  0.1094E+01  0.6221E+00
     -9.442  0.1039E+01  0.6869E+00
     -9.380  0.9147E+00  0.7439E+00
     -9.318  0.8041E+00  0.7941E+00
     -9.255  0.7412E+00  0.8403E+00
     -9.193  0.7346E+00  0.8861E+00
     -9.131  0.8224E+00  0.9373E+00
     -9.068  0.1040E+01  0.1002E+01
     -9.006  0.1340E+01  0.1086E+01
     -8.944  0.1601E+01  0.1185E+01
     -8.881  0.1746E+01  0.1294E+01
     -8.819  0.1805E+01  0.1407E+01
     -8.757  0.1843E+01  0.1522E+01
     -8.694  0.1854E+01  0.1637E+01
     -8.632  0.1799E+01  0.1749E+01
     -8.570  0.1715E+01  0.1856E+01
     -8.507  0.1735E+01  0.1965E+01
     -8.445  0.1966E+01  0.2087E+01
     -8.383  0.2355E+01  0.2234E+01
     -8.320  0.2682E+01  0.2401E+01
     -8.258  0.2741E+01  0.2572E+01
     -8.196  0.2536E+01  0.2730E+01
     -8.133  0.2264E+01  0.2871E+01
     -8.071  0.2098E+01  0.3002E+01
     -8.008  0.2066E+01  0.3131E+01
     -7.946  0.2180E+01  0.3267E+01
     -7.884  0.2569E+01  0.3427E+01
     -7.821  0.3355E+01  0.3636E+01
     -7.759  0.4399E+01  0.3910E+01
     -7.697  0.5313E+01  0.4241E+01
     -7.634  0.5859E+01  0.4607E+01
     -7.572  0.6243E+01  0.4996E+01
     -7.510  0.6890E+01  0.5425E+01
     -7.447  0.8008E+01  0.5924E+01
     -7.385  0.9487E+01  0.6516E+01
     -7.323  0.1111E+02  0.7209E+01
     -7.260  0.1263E+02  0.7996E+01
     -7.198  0.1370E+02  0.8850E+01
     -7.136  0.1400E+02  0.9723E+01
     -7.073  0.1349E+02  0.1056E+02
     -7.011  0.1258E+02  0.1135E+02
     -6.949  0.1200E+02  0.1210E+02
     -6.886  0.1247E+02  0.1287E+02
     -6.824  0.1424E+02  0.1376E+02
     -6.762  0.1696E+02  0.1482E+02
     -6.699  0.1990E+02  0.1606E+02
     -6.637  0.2241E+02  0.1745E+02
     -6.575  0.2416E+02  0.1896E+02
     -6.512  0.2495E+02  0.2052E+02
     -6.450  0.2470E+02  0.2206E+02
     -6.388  0.2367E+02  0.2353E+02
     -6.325  0.2253E+02  0.2494E+02
     -6.263  0.2186E+02  0.2630E+02
     -6.201  0.2160E+02  0.2764E+02
     -6.138  0.2108E+02  0.2896E+02
     -6.076  0.1974E+02  0.3019E+02
     -6.014  0.1768E+02  0.3129E+02
     -5.951  0.1562E+02  0.3227E+02
     -5.889  0.1439E+02  0.3316E+02
     -5.827  0.1441E+02  0.3406E+02
     -5.764  0.1557E+02  0.3503E+02
     -5.702  0.1738E+02  0.3611E+02
     -5.640  0.1919E+02  0.3731E+02
     -5.577  0.2038E+02  0.3858E+02
     -5.515  0.2068E+02  0.3987E+02
     -5.453  0.2018E+02  0.4113E+02
     -5.390  0.1930E+02  0.4233E+02
     -5.328  0.1859E+02  0.4349E+02
     -5.266  0.1849E+02  0.4464E+02
     -5.203  0.1906E+02  0.4583E+02
     -5.141  0.2001E+02  0.4708E+02
     -5.079  0.2091E+02  0.4838E+02
     -5.016  0.2144E+02  0.4972E+02
     -4.954  0.2150E+02  0.5106E+02
     -4.892  0.2125E+02  0.5238E+02
     -4.829  0.2110E+02  0.5370E+02
     -4.767  0.2154E+02  0.5504E+02
     -4.705  0.2284E+02  0.5646E+02
     -4.642  0.2486E+02  0.5801E+02
     -4.580  0.2702E+02  0.5970E+02
     -4.518  0.2842E+02  0.6147E+02
     -4.455  0.2845E+02  0.6324E+02
     -4.393  0.2742E+02  0.6495E+02
     -4.331  0.2652E+02  0.6661E+02
     -4.268  0.2693E+02  0.6829E+02
     -4.206  0.2878E+02  0.7008E+02
     -4.144  0.3108E+02  0.7202E+02
     -4.081  0.3270E+02  0.7406E+02
     -4.019  0.3335E+02  0.7613E+02
     -3.957  0.3353E+02  0.7822E+02
     -3.894  0.3386E+02  0.8034E+02
     -3.832  0.3441E+02  0.8248E+02
     -3.770  0.3490E+02  0.8466E+02
     -3.707  0.3500E+02  0.8684E+02
     -3.645  0.3445E+02  0.8899E+02
     -3.583  0.3296E+02  0.9104E+02
     -3.520  0.3030E+02  0.9293E+02
     -3.458  0.2671E+02  0.9459E+02
     -3.396  0.2289E+02  0.9602E+02
     -3.333  0.1958E+02  0.9724E+02
     -3.271  0.1719E+02  0.9831E+02
     -3.209  0.1600E+02  0.9931E+02
     -3.146  0.1635E+02  0.1003E+03
     -3.084  0.1846E+02  0.1015E+03
     -3.022  0.2192E+02  0.1028E+03
     -2.959  0.2562E+02  0.1044E+03
     -2.897  0.2829E+02  0.1062E+03
     -2.834  0.2912E+02  0.1080E+03
     -2.772  0.2805E+02  0.1098E+03
     -2.710  0.2577E+02  0.1114E+03
     -2.647  0.2338E+02  0.1128E+03
     -2.585  0.2180E+02  0.1142E+03
     -2.523  0.2133E+02  0.1155E+03
     -2.460  0.2161E+02  0.1169E+03
     -2.398  0.2218E+02  0.1183E+03
     -2.336  0.2276E+02  0.1197E+03
     -2.273  0.2338E+02  0.1211E+03
     -2.211  0.2415E+02  0.1226E+03
     -2.149  0.2508E+02  0.1242E+03
     -2.086  0.2606E+02  0.1258E+03
     -2.024  0.2698E+02  0.1275E+03
     -1.962  0.2784E+02  0.1292E+03
     -1.899  0.2838E+02  0.1310E+03
     -1.837  0.2820E+02  0.1328E+03
     -1.775  0.2711E+02  0.1345E+03
     -1.712  0.2548E+02  0.1360E+03
     -1.650  0.2386E+02  0.1375E+03
     -1.588  0.2253E+02  0.1389E+03
     -1.525  0.2158E+02  0.1403E+03
     -1.463  0.2120E+02  0.1416E+03
     -1.401  0.2158E+02  0.1430E+03
     -1.338  0.2268E+02  0.1444E+03
     -1.276  0.2409E+02  0.1459E+03
     -1.214  0.2550E+02  0.1475E+03
     -1.151  0.2702E+02  0.1491E+03
     -1.089  0.2874E+02  0.1509E+03
     -1.027  0.3038E+02  0.1528E+03
     -0.964  0.3143E+02  0.1548E+03
     -0.902  0.3159E+02  0.1568E+03
     -0.840  0.3083E+02  0.1587E+03
     -0.777  0.2932E+02  0.1605E+03
     -0.715  0.2732E+02  0.1622E+03
     -0.653  0.2503E+02  0.1638E+03
     -0.590  0.2244E+02  0.1652E+03
     -0.528  0.1970E+02  0.1664E+03
     -0.466  0.1727E+02  0.1675E+03
     -0.403  0.1558E+02  0.1684E+03
     -0.341  0.1429E+02  0.1693E+03
     -0.279  0.1265E+02  0.1701E+03
     -0.216  0.1037E+02  0.1708E+03
     -0.154  0.7965E+01  0.1713E+03
     -0.092  0.6187E+01  0.1717E+03
     -0.029  0.5331E+01  0.1720E+03
      0.033  0.5079E+01  0.1723E+03
      0.095  0.4945E+01  0.1726E+03
      0.158  0.4777E+01  0.1729E+03
      0.220  0.4775E+01  0.1732E+03
      0.282  0.5031E+01  0.1735E+03
      0.345  0.5241E+01  0.1738E+03
      0.407  0.4967E+01  0.1742E+03
      0.469  0.4145E+01  0.1744E+03
      0.532  0.3267E+01  0.1746E+03
      0.594  0.3012E+01  0.1748E+03
      0.656  0.3702E+01  0.1750E+03
      0.719  0.5072E+01  0.1753E+03
      0.781  0.6493E+01  0.1758E+03
      0.843  0.7377E+01  0.1762E+03
      0.906  0.7450E+01  0.1767E+03
      0.968  0.6807E+01  0.1771E+03
      1.030  0.5779E+01  0.1775E+03
      1.093  0.4739E+01  0.1778E+03
      1.155  0.3955E+01  0.1780E+03
      1.217  0.3548E+01  0.1782E+03
      1.280  0.3505E+01  0.1784E+03
      1.342  0.3735E+01  0.1787E+03
      1.404  0.4110E+01  0.1789E+03
      1.467  0.4493E+01  0.1792E+03
      1.529  0.4781E+01  0.1795E+03
      1.591  0.4988E+01  0.1798E+03
      1.654  0.5256E+01  0.1802E+03
      1.716  0.5678E+01  0.1805E+03
      1.778  0.6083E+01  0.1809E+03
      1.841  0.6099E+01  0.1813E+03
      1.903  0.5557E+01  0.1816E+03
      1.965  0.4777E+01  0.1819E+03
      2.028  0.4341E+01  0.1822E+03
      2.090  0.4560E+01  0.1825E+03
      2.152  0.5205E+01  0.1828E+03
      2.215  0.5753E+01  0.1831E+03
      2.277  0.5872E+01  0.1835E+03
      2.339  0.5648E+01  0.1839E+03
      2.402  0.5346E+01  0.1842E+03
      2.464  0.5031E+01  0.1845E+03
      2.527  0.4533E+01  0.1848E+03
      2.589  0.3773E+01  0.1850E+03
      2.651  0.3021E+01  0.1852E+03
      2.714  0.2761E+01  0.1854E+03
      2.776  0.3320E+01  0.1856E+03
      2.838  0.4568E+01  0.1859E+03
      2.901  0.5925E+01  0.1863E+03
      2.963  0.6684E+01  0.1867E+03
      3.025  0.6458E+01  0.1871E+03
      3.088  0.5413E+01  0.1874E+03
      3.150  0.4128E+01  0.1877E+03
      3.212  0.3217E+01  0.1879E+03
      3.275  0.2991E+01  0.1881E+03
      3.337  0.3343E+01  0.1883E+03
      3.399  0.3886E+01  0.1885E+03
      3.462  0.4235E+01  0.1888E+03
      3.524  0.4227E+01  0.1890E+03
      3.586  0.3916E+01  0.1893E+03
      3.649  0.3465E+01  0.1895E+03
      3.711  0.3110E+01  0.1897E+03
      3.773  0.3100E+01  0.1899E+03
      3.836  0.3499E+01  0.1901E+03
      3.898  0.4061E+01  0.1903E+03
      3.960  0.4373E+01  0.1906E+03
      4.023  0.4147E+01  0.1909E+03
      4.085  0.3423E+01  0.1911E+03
      4.147  0.2541E+01  0.1913E+03
      4.210  0.1900E+01  0.1914E+03
      4.272  0.1695E+01  0.1915E+03
      4.334  0.1829E+01  0.1916E+03
      4.397  0.2012E+01  0.1917E+03
      4.459  0.1951E+01  0.1918E+03
      4.521  0.1538E+01  0.1919E+03
      4.584  0.9198E+00  0.1920E+03
      4.646  0.3605E+00  0.1920E+03
      4.708  0.2890E-01  0.1920E+03
      4.771 -0.8232E-01  0.1920E+03
      4.833 -0.7585E-01  0.1920E+03
      4.895 -0.4121E-01  0.1920E+03
      4.958 -0.1637E-01  0.1920E+03
      5.020 -0.5059E-02  0.1920E+03
      5.082 -0.1248E-02  0.1920E+03
      5.145 -0.2493E-03  0.1920E+03
      5.207 -0.4057E-04  0.1920E+03
      5.269 -0.5404E-05  0.1920E+03
      5.332 -0.5904E-06  0.1920E+03
      5.394 -0.5299E-07  0.1920E+03
      5.456 -0.3910E-08  0.1920E+03
      5.519 -0.2373E-09  0.1920E+03
      5.581 -0.1184E-10  0.1920E+03
      5.643 -0.4863E-12  0.1920E+03
      5.706 -0.1633E-13  0.1920E+03
      5.768 -0.3710E-15  0.1920E+03
      5.830  0.0000E+00  0.1920E+03
      5.893  0.0000E+00  0.1920E+03
      5.955  0.0000E+00  0.1920E+03
      6.017  0.0000E+00  0.1920E+03
      6.080  0.0000E+00  0.1920E+03
      6.142  0.0000E+00  0.1920E+03
      6.204  0.0000E+00  0.1920E+03
      6.267  0.0000E+00  0.1920E+03
      6.329  0.0000E+00  0.1920E+03
      6.391  0.0000E+00  0.1920E+03
      6.454  0.0000E+00  0.1920E+03
      6.516  0.0000E+00  0.1920E+03
