 vasp.5.4.4.18Apr17-6-g9f103f2a35 (build Apr 28 2017 10:53:45) complex          
  
 executed on             LinuxIFC date 2020.02.17  09:19:50
 running on   24 total cores
 distrk:  each k-point on   24 cores,    1 groups
 distr:  one band on NCORES_PER_BAND=   1 cores,   24 groups


--------------------------------------------------------------------------------------------------------


 INCAR:
 POTCAR:    PAW_PBE Au 04Oct2007                  
 POTCAR:    PAW_PBE Pt 04Feb2005                  
 POTCAR:    PAW_PBE Ir 06Sep2000                  

 ----------------------------------------------------------------------------- 
|                                                                             |
|           W    W    AA    RRRRR   N    N  II  N    N   GGGG   !!!           |
|           W    W   A  A   R    R  NN   N  II  NN   N  G    G  !!!           |
|           W    W  A    A  R    R  N N  N  II  N N  N  G       !!!           |
|           W WW W  AAAAAA  RRRRR   N  N N  II  N  N N  G  GGG   !            |
|           WW  WW  A    A  R   R   N   NN  II  N   NN  G    G                |
|           W    W  A    A  R    R  N    N  II  N    N   GGGG   !!!           |
|                                                                             |
|      For optimal performance we recommend to set                            |
|        NCORE= 4 - approx SQRT( number of cores)                             |
|      NCORE specifies how many cores store one orbital (NPAR=cpu/NCORE).     |
|      This setting can  greatly improve the performance of VASP for DFT.     |
|      The default,   NCORE=1            might be grossly inefficient         |
|      on modern multi-core architectures or massively parallel machines.     |
|      Do your own testing !!!!                                               |
|      Unfortunately you need to use the default for GW and RPA calculations. |
|      (for HF NCORE is supported but not extensively tested yet)             |
|                                                                             |
 ----------------------------------------------------------------------------- 

 POTCAR:    PAW_PBE Au 04Oct2007                  
   SHA256 =  d0044ae04e2bdce24051b198fc5c053d722a5bc6fe3c3b100514a13fc5d2db88 Au
   COPYR  = (c) Copyright 04Oct2007 Georg Kresse                                
   COPYR  = This file is part of the software VASP. Any use, copying, and all ot
   COPYR  = If you do not have a valid VASP license, you may not use, copy or di
   VRHFIN =Au: s1d10                                                            
   LEXCH  = PE                                                                  
   EATOM  =   926.0867 eV,   68.0654 Ry                                         
                                                                                
   TITEL  = PAW_PBE Au 04Oct2007                                                
   LULTRA =        F    use ultrasoft PP ?                                      
   IUNSCR =        1    unscreen: 0-lin 1-nonlin 2-no                           
   RPACOR =    2.330    partial core radius                                     
   POMASS =  196.966; ZVAL   =   11.000    mass and valenz                      
   RCORE  =    2.500    outmost cutoff radius                                   
   RWIGS  =    2.840; RWIGS  =    1.503    wigner-seitz radius (au A)           
   ENMAX  =  229.943; ENMIN  =  172.457 eV                                      
   ICORE  =        3    local potential                                         
   LCOR   =        T    correct aug charges                                     
   LPAW   =        T    paw PP                                                  
   EAUG   =  356.670                                                            
   DEXC   =    0.000                                                            
   RMAX   =    2.562    core radius for proj-oper                               
   RAUG   =    1.300    factor for augmentation sphere                          
   RDEP   =    2.598    radius for radial grids                                 
   RDEPT  =    2.193    core radius for aug-charge                              
                                                                                
   Atomic configuration                                                         
   16 entries                                                                   
     n  l   j            E        occ.                                          
     1  0  0.50    -80748.5001   2.0000                                         
     2  0  0.50    -14244.7466   2.0000                                         
     2  1  1.50    -12310.9591   6.0000                                         
     3  0  0.50     -3362.1768   2.0000                                         
     3  1  1.50     -2801.5463   6.0000                                         
     3  2  2.50     -2203.8206  10.0000                                         
     4  0  0.50      -729.8168   2.0000                                         
     4  1  1.50      -546.0527   6.0000                                         
     4  2  2.50      -325.7302  10.0000                                         
     4  3  3.50       -81.1472  14.0000                                         
     5  0  0.50      -108.3201   2.0000                                         
     5  1  1.50       -59.7479   6.0000                                         
     5  2  2.50        -6.8783  10.0000                                         
     6  0  0.50        -5.7602   1.0000                                         
     6  1  1.50        -6.8029   0.0000                                         
     5  3  2.50        -1.3606   0.0000                                         
   Description                                                                  
     l       E           TYP  RCUT    TYP  RCUT                                 
     2     -6.8782861     23  2.500                                             
     2     -8.2388687     23  2.500                                             
     0     -5.7601759     23  2.500                                             
     0     -0.8493231     23  2.500                                             
     1     -2.7211652     23  2.500                                             
     1     27.2116520     23  2.500                                             
     3     -1.3605826     23  2.500                                             
  local pseudopotential read in
  partial core-charges read in
  partial kinetic energy density read in
  atomic valenz-charges read in
  non local Contribution for L=           2  read in
    real space projection operators read in
  non local Contribution for L=           2  read in
    real space projection operators read in
  non local Contribution for L=           0  read in
    real space projection operators read in
  non local Contribution for L=           0  read in
    real space projection operators read in
  non local Contribution for L=           1  read in
    real space projection operators read in
  non local Contribution for L=           1  read in
    real space projection operators read in
    PAW grid and wavefunctions read in
 
   number of l-projection  operators is LMAX  =           6
   number of lm-projection operators is LMMAX =          18
 
 POTCAR:    PAW_PBE Pt 04Feb2005                  
   SHA256 =  3ed90460adef76debcff1cfb73ee1349b515b1a3db03439735b44de3a8db7dc8 Pt
   COPYR  = (c) Copyright 04Feb2005 Georg Kresse                                
   COPYR  = This file is part of the software VASP. Any use, copying, and all ot
   COPYR  = If you do not have a valid VASP license, you may not use, copy or di
   VRHFIN =Pt: s1d9                                                             
   LEXCH  = PE                                                                  
   EATOM  =   729.1176 eV,   53.5886 Ry                                         
                                                                                
   TITEL  = PAW_PBE Pt 04Feb2005                                                
   LULTRA =        F    use ultrasoft PP ?                                      
   IUNSCR =        1    unscreen: 0-lin 1-nonlin 2-no                           
   RPACOR =    2.330    partial core radius                                     
   POMASS =  195.080; ZVAL   =   10.000    mass and valenz                      
   RCORE  =    2.600    outmost cutoff radius                                   
   RWIGS  =    2.750; RWIGS  =    1.455    wigner-seitz radius (au A)           
   ENMAX  =  230.283; ENMIN  =  172.712 eV                                      
   ICORE  =        3    local potential                                         
   LCOR   =        T    correct aug charges                                     
   LPAW   =        T    paw PP                                                  
   EAUG   =  358.966                                                            
   DEXC   =    0.000                                                            
   RMAX   =    2.658    core radius for proj-oper                               
   RAUG   =    1.300    factor for augmentation sphere                          
   RDEP   =    2.761    radius for radial grids                                 
   RDEPT  =    2.203    core radius for aug-charge                              
                                                                                
   Atomic configuration                                                         
   16 entries                                                                   
     n  l   j            E        occ.                                          
     1  0  0.50    -78401.1885   2.0000                                         
     2  0  0.50    -13770.7750   2.0000                                         
     2  1  1.50    -11931.0468   6.0000                                         
     3  0  0.50     -3234.7234   2.0000                                         
     3  1  1.50     -2699.2216   6.0000                                         
     3  2  2.50     -2119.5714  10.0000                                         
     4  0  0.50      -695.1528   2.0000                                         
     4  1  1.50      -519.6034   6.0000                                         
     4  2  2.50      -306.6786  10.0000                                         
     4  3  3.50       -70.1041  14.0000                                         
     5  0  0.50      -101.7747   2.0000                                         
     5  1  1.50       -55.9873   6.0000                                         
     5  2  2.50        -6.1423   9.0000                                         
     6  0  0.50        -5.6573   1.0000                                         
     6  1  1.50        -6.8029   0.0000                                         
     5  3  2.50        -1.3606   0.0000                                         
   Description                                                                  
     l       E           TYP  RCUT    TYP  RCUT                                 
     2     -6.1423404     23  2.500                                             
     2     -7.5029230     23  2.500                                             
     0     -5.6573207     23  2.500                                             
     0      0.7416693     23  2.500                                             
     1     -2.7211652     23  2.600                                             
     1     20.4087390     23  2.600                                             
     3     -1.3605826     23  2.500                                             
  local pseudopotential read in
  partial core-charges read in
  partial kinetic energy density read in
  atomic valenz-charges read in
  non local Contribution for L=           2  read in
    real space projection operators read in
  non local Contribution for L=           2  read in
    real space projection operators read in
  non local Contribution for L=           0  read in
    real space projection operators read in
  non local Contribution for L=           0  read in
    real space projection operators read in
  non local Contribution for L=           1  read in
    real space projection operators read in
  non local Contribution for L=           1  read in
    real space projection operators read in
    PAW grid and wavefunctions read in
 
   number of l-projection  operators is LMAX  =           6
   number of lm-projection operators is LMMAX =          18
 
 POTCAR:    PAW_PBE Ir 06Sep2000                  
   SHA256 =  7c6af8d4d487b237782eb51e6f62977b27a1da78c3c96acd1cebefd6c308f120 Ir
   COPYR  = (c) Copyright 06Sep2000 Georg Kresse                                
   COPYR  = This file is part of the software VASP. Any use, copying, and all ot
   COPYR  = If you do not have a valid VASP license, you may not use, copy or di
   VRHFIN =Ir: s1d8                                                             
   LEXCH  = PE                                                                  
   EATOM  =   560.1833 eV,   41.1723 Ry                                         
                                                                                
   TITEL  = PAW_PBE Ir 06Sep2000                                                
   LULTRA =        F    use ultrasoft PP ?                                      
   IUNSCR =        1    unscreen: 0-lin 1-nonlin 2-no                           
   RPACOR =    2.250    partial core radius                                     
   POMASS =  192.220; ZVAL   =    9.000    mass and valenz                      
   RCORE  =    2.600    outmost cutoff radius                                   
   RWIGS  =    2.690; RWIGS  =    1.423    wigner-seitz radius (au A)           
   ENMAX  =  210.864; ENMIN  =  158.148 eV                                      
   RCLOC  =    1.857    cutoff for local pot                                    
   LCOR   =        T    correct aug charges                                     
   LPAW   =        T    paw PP                                                  
   EAUG   =  318.962                                                            
   DEXC   =    0.000                                                            
   RMAX   =    2.667    core radius for proj-oper                               
   RAUG   =    1.300    factor for augmentation sphere                          
   RDEP   =    2.748    radius for radial grids                                 
   RDEPT  =    2.300    core radius for aug-charge                              
                                                                                
   Atomic configuration                                                         
   16 entries                                                                   
     n  l   j            E        occ.                                          
     1  0  0.50    -76100.0449   2.0000                                         
     2  0  0.50    -13308.1683   2.0000                                         
     2  1  1.50    -11558.0021   6.0000                                         
     3  0  0.50     -3110.7274   2.0000                                         
     3  1  1.50     -2599.2109   6.0000                                         
     3  2  2.50     -2037.1515  10.0000                                         
     4  0  0.50      -661.6001   2.0000                                         
     4  1  1.50      -493.8981   6.0000                                         
     4  2  2.50      -288.1909  10.0000                                         
     4  3  3.50       -59.5718  14.0000                                         
     5  0  0.50       -95.3879   2.0000                                         
     5  1  1.50       -52.2747   6.0000                                         
     5  2  2.50        -5.4180   8.0000                                         
     6  0  0.50        -5.5479   1.0000                                         
     6  1  1.50        -6.8029   0.0000                                         
     5  3  2.50        -1.3606   0.0000                                         
   Description                                                                  
     l       E           TYP  RCUT    TYP  RCUT                                 
     2     -5.4179967     23  2.600                                             
     2     -6.7785793     23  2.600                                             
     0     -5.5478636     23  2.600                                             
     0      2.2542272     23  2.600                                             
     1     -2.7211652     23  2.600                                             
     1     20.4087390     23  2.600                                             
  local pseudopotential read in
  partial core-charges read in
  partial kinetic energy density read in
  atomic valenz-charges read in
  non local Contribution for L=           2  read in
    real space projection operators read in
  non local Contribution for L=           2  read in
    real space projection operators read in
  non local Contribution for L=           0  read in
    real space projection operators read in
  non local Contribution for L=           0  read in
    real space projection operators read in
  non local Contribution for L=           1  read in
    real space projection operators read in
  non local Contribution for L=           1  read in
    real space projection operators read in
    PAW grid and wavefunctions read in
 
   number of l-projection  operators is LMAX  =           6
   number of lm-projection operators is LMMAX =          18
 
  PAW_PBE Au 04Oct2007                  :
 energy of atom  1       EATOM= -926.0867
 kinetic energy error for atom=    0.0152 (will be added to EATOM!!)
  PAW_PBE Pt 04Feb2005                  :
 energy of atom  2       EATOM= -729.1176
 kinetic energy error for atom=    0.0144 (will be added to EATOM!!)
  PAW_PBE Ir 06Sep2000                  :
 energy of atom  3       EATOM= -560.1833
 kinetic energy error for atom=    0.0056 (will be added to EATOM!!)
 
 
 POSCAR: Au Pt Ir                                
  positions in cartesian coordinates
  No initial velocities read in
 exchange correlation table for  LEXCH =        8
   RHO(1)=    0.500       N(1)  =     2000
   RHO(2)=  100.500       N(2)  =     4000
 


--------------------------------------------------------------------------------------------------------


 ion  position               nearest neighbor table
   1  0.000  0.000  0.390-   3 2.78   3 2.78   4 2.78   4 2.78   2 2.78   2 2.78   5 2.82   6 2.82
                             7 2.82
   2  0.500  0.000  0.390-   4 2.78   3 2.78   4 2.78   3 2.78   1 2.78   1 2.78   6 2.82   5 2.82
                             8 2.82
   3  0.000  0.500  0.390-   1 2.78   1 2.78   2 2.78   2 2.78   4 2.78   4 2.78   7 2.82   5 2.82
                             8 2.82
   4  0.500  0.500  0.390-   2 2.78   1 2.78   2 2.78   1 2.78   3 2.78   3 2.78   8 2.82   7 2.82
                             6 2.82
   5  0.167  0.167  0.465-   7 2.78   7 2.78   8 2.78   8 2.78   6 2.78   6 2.78   9 2.80  11 2.80
                            10 2.80   1 2.82   3 2.82   2 2.82
   6  0.667  0.167  0.465-   8 2.78   7 2.78   8 2.78   7 2.78   5 2.78   5 2.78  10 2.80  16 2.80
                             9 2.80   2 2.82   4 2.82   1 2.82
   7  0.167  0.667  0.465-   5 2.78   5 2.78   6 2.78   6 2.78   8 2.78   8 2.78  10 2.80  16 2.80
                            11 2.80   3 2.82   4 2.82   1 2.82
   8  0.667  0.667  0.465-   6 2.78   5 2.78   6 2.78   5 2.78   7 2.78   7 2.78   9 2.80  11 2.80
                            16 2.80   4 2.82   2 2.82   3 2.82
   9  0.833  0.333  0.539-  16 2.78  11 2.78  16 2.78  11 2.78  10 2.78  10 2.78   5 2.80   8 2.80
                             6 2.80  14 2.83  12 2.83  15 2.83
  10  0.333  0.333  0.539-  11 2.78  11 2.78  16 2.78  16 2.78   9 2.78   9 2.78   6 2.80   7 2.80
                             5 2.80  15 2.83  13 2.83  14 2.83
  11  0.333  0.833  0.539-  10 2.78   9 2.78  10 2.78   9 2.78  16 2.78  16 2.78   5 2.80   8 2.80
                             7 2.80  13 2.83  15 2.83  12 2.83
  12  0.000  0.000  0.615-  14 2.78  14 2.78  15 2.78  15 2.78  13 2.78  13 2.78  16 2.83   9 2.83
                            11 2.83
  13  0.500  0.000  0.615-  15 2.78  14 2.78  15 2.78  14 2.78  12 2.78  12 2.78  11 2.83  10 2.83
                            16 2.83
  14  0.000  0.500  0.615-  12 2.78  12 2.78  13 2.78  13 2.78  15 2.78  15 2.78   9 2.83  16 2.83
                            10 2.83
  15  0.500  0.500  0.615-  13 2.78  12 2.78  13 2.78  12 2.78  14 2.78  14 2.78  10 2.83  11 2.83
                             9 2.83
  16  0.833  0.833  0.539-   9 2.78   9 2.78  10 2.78  10 2.78  11 2.78  11 2.78   6 2.80   7 2.80
                             8 2.80  12 2.83  14 2.83  13 2.83
 
  LATTYP: Found a hexagonal cell.
 ALAT       =     5.5578593001
 C/A-ratio  =     5.5429542221
  
  Lattice vectors:
  
 A1 = (   2.7789296501,  -4.8132473446,   0.0000000000)
 A2 = (  -5.5578593001,   0.0000000000,   0.0000000000)
 A3 = (   0.0000000000,   0.0000000000, -30.8069596737)


Analysis of symmetry for initial positions (statically):
=====================================================================
 Subroutine PRICEL returns:
 Original cell was already a primitive cell.
 

 Routine SETGRP: Setting up the symmetry group for a 
 hexagonal supercell.


 Subroutine GETGRP returns: Found  2 space group operations
 (whereof  2 operations were pure point group operations)
 out of a pool of 24 trial point group operations.


The static configuration has the point symmetry C_1h.


Analysis of symmetry for dynamics (positions and initial velocities):
=====================================================================
 Subroutine PRICEL returns:
 Original cell was already a primitive cell.
 

 Routine SETGRP: Setting up the symmetry group for a 
 hexagonal supercell.


 Subroutine GETGRP returns: Found  2 space group operations
 (whereof  2 operations were pure point group operations)
 out of a pool of 24 trial point group operations.


The dynamic configuration has the point symmetry C_1h.


Analysis of constrained symmetry for selective dynamics:
=====================================================================
 Subroutine PRICEL returns:
 Original cell was already a primitive cell.
 

 Routine SETGRP: Setting up the symmetry group for a 
 hexagonal supercell.


 Subroutine GETGRP returns: Found  2 space group operations
 (whereof  2 operations were pure point group operations)
 out of a pool of 24 trial point group operations.


The constrained configuration has the point symmetry C_1h.


 Subroutine INISYM returns: Found  2 space group operations
 (whereof  2 operations are pure point group operations),
 and found     1 'primitive' translations

 
 
 KPOINTS: KPOINTS created by Atomic Simulation Env

Automatic generation of k-mesh.
Space group operators:
 irot       det(A)        alpha          n_x          n_y          n_z        tau_x        tau_y        tau_z
    1     1.000000     0.000001     1.000000     0.000000     0.000000     0.000000     0.000000     0.000000
    2    -1.000000   180.000000     0.500000    -0.866025     0.000000     0.000000     0.000000     0.000000
 
 Subroutine IBZKPT returns following result:
 ===========================================
 
 Found     52 irreducible k-points:
 
 Following reciprocal coordinates:
            Coordinates               Weight
  0.062500  0.062500  0.000000     16.000000
  0.000000  0.062500  0.000000     32.000000
  0.187500  0.062500  0.000000     32.000000
  0.125000  0.187500  0.000000     32.000000
 -0.062500  0.125000  0.000000     32.000000
  0.312500  0.062500  0.000000     32.000000
  0.250000  0.312500  0.000000     32.000000
 -0.062500  0.250000  0.000000     32.000000
  0.437500  0.062500  0.000000     32.000000
  0.375000  0.437500  0.000000     32.000000
 -0.062500  0.375000  0.000000     32.000000
 -0.437500  0.062500  0.000000     32.000000
  0.500000 -0.437500  0.000000     32.000000
 -0.062500  0.500000  0.000000     32.000000
 -0.312500  0.062500  0.000000     32.000000
 -0.375000 -0.312500  0.000000     32.000000
 -0.062500 -0.375000  0.000000     32.000000
 -0.187500  0.062500  0.000000     32.000000
 -0.250000 -0.187500  0.000000     32.000000
 -0.062500 -0.250000  0.000000     32.000000
 -0.062500  0.062500  0.000000     16.000000
 -0.125000 -0.062500  0.000000     32.000000
  0.187500  0.187500  0.000000     16.000000
  0.000000  0.187500  0.000000     32.000000
  0.312500  0.187500  0.000000     32.000000
  0.125000  0.312500  0.000000     32.000000
 -0.187500  0.125000  0.000000     32.000000
  0.437500  0.187500  0.000000     32.000000
  0.250000  0.437500  0.000000     32.000000
 -0.187500  0.250000  0.000000     32.000000
 -0.437500  0.187500  0.000000     32.000000
  0.375000 -0.437500  0.000000     32.000000
 -0.187500  0.375000  0.000000     32.000000
 -0.312500  0.187500  0.000000     32.000000
  0.500000 -0.312500  0.000000     32.000000
 -0.187500  0.500000  0.000000     32.000000
 -0.187500  0.187500  0.000000     16.000000
 -0.375000 -0.187500  0.000000     32.000000
  0.312500  0.312500  0.000000     16.000000
  0.000000  0.312500  0.000000     32.000000
  0.437500  0.312500  0.000000     32.000000
  0.125000  0.437500  0.000000     32.000000
 -0.312500  0.125000  0.000000     32.000000
 -0.437500  0.312500  0.000000     32.000000
  0.250000 -0.437500  0.000000     32.000000
 -0.312500  0.250000  0.000000     32.000000
 -0.312500  0.312500  0.000000     16.000000
  0.375000 -0.312500  0.000000     32.000000
  0.437500  0.437500  0.000000     16.000000
  0.000000  0.437500  0.000000     32.000000
 -0.437500  0.437500  0.000000     16.000000
  0.125000 -0.437500  0.000000     32.000000
 
 Following cartesian coordinates:
            Coordinates               Weight
  0.011245  0.006492  0.000000     16.000000
  0.000000  0.012985  0.000000     32.000000
  0.033736 -0.006492  0.000000     32.000000
  0.022491  0.025970  0.000000     32.000000
 -0.011245  0.032462  0.000000     32.000000
  0.056227 -0.019477  0.000000     32.000000
  0.044981  0.038955  0.000000     32.000000
 -0.011245  0.058432  0.000000     32.000000
  0.078717 -0.032462  0.000000     32.000000
  0.067472  0.051940  0.000000     32.000000
 -0.011245  0.084402  0.000000     32.000000
 -0.078717  0.058432  0.000000     32.000000
  0.089963 -0.142835  0.000000     32.000000
 -0.011245  0.110372  0.000000     32.000000
 -0.056227  0.045447  0.000000     32.000000
 -0.067472 -0.025970  0.000000     32.000000
 -0.011245 -0.071417  0.000000     32.000000
 -0.033736  0.032462  0.000000     32.000000
 -0.044981 -0.012985  0.000000     32.000000
 -0.011245 -0.045447  0.000000     32.000000
 -0.011245  0.019477  0.000000     16.000000
 -0.022491  0.000000  0.000000     32.000000
  0.033736  0.019477  0.000000     16.000000
  0.000000  0.038955  0.000000     32.000000
  0.056227  0.006492  0.000000     32.000000
  0.022491  0.051940  0.000000     32.000000
 -0.033736  0.045447  0.000000     32.000000
  0.078717 -0.006492  0.000000     32.000000
  0.044981  0.064925  0.000000     32.000000
 -0.033736  0.071417  0.000000     32.000000
 -0.078717  0.084402  0.000000     32.000000
  0.067472 -0.129850  0.000000     32.000000
 -0.033736  0.097387  0.000000     32.000000
 -0.056227  0.071417  0.000000     32.000000
  0.089963 -0.116865  0.000000     32.000000
 -0.033736  0.123357  0.000000     32.000000
 -0.033736  0.058432  0.000000     16.000000
 -0.067472  0.000000  0.000000     32.000000
  0.056227  0.032462  0.000000     16.000000
  0.000000  0.064925  0.000000     32.000000
  0.078717  0.019477  0.000000     32.000000
  0.022491  0.077910  0.000000     32.000000
 -0.056227  0.058432  0.000000     32.000000
 -0.078717  0.110372  0.000000     32.000000
  0.044981 -0.116865  0.000000     32.000000
 -0.056227  0.084402  0.000000     32.000000
 -0.056227  0.097387  0.000000     16.000000
  0.067472 -0.103880  0.000000     32.000000
  0.078717  0.045447  0.000000     16.000000
  0.000000  0.090895  0.000000     32.000000
 -0.078717  0.136342  0.000000     16.000000
  0.022491 -0.103880  0.000000     32.000000
 


--------------------------------------------------------------------------------------------------------




 Dimension of arrays:
   k-points           NKPTS =     52   k-points in BZ     NKDIM =     52   number of bands    NBANDS=     96
   number of dos      NEDOS =    301   number of ions     NIONS =     16
   non local maximal  LDIM  =      6   non local SUM 2l+1 LMDIM =     18
   total plane-waves  NPLWV = 112896
   max r-space proj   IRMAX =      1   max aug-charges    IRDMAX=  10104
   dimension x,y,z NGX =    28 NGY =   28 NGZ =  144
   dimension x,y,z NGXF=    56 NGYF=   56 NGZF=  288
   support grid    NGXF=    56 NGYF=   56 NGZF=  288
   ions per type =               1  14   1
   NGX,Y,Z   is equivalent  to a cutoff of   8.38,  8.38,  7.77 a.u.
   NGXF,Y,Z  is equivalent  to a cutoff of  16.75, 16.75, 15.54 a.u.

 SYSTEM =  unknown system                          
 POSCAR =  Au Pt Ir                                

 Startparameter for this run:
   NWRITE =      2    write-flag & timer
   PREC   = normal    normal or accurate (medium, high low for compatibility)
   ISTART =      0    job   : 0-new  1-cont  2-samecut
   ICHARG =      2    charge: 1-file 2-atom 10-const
   ISPIN  =      1    spin polarized calculation?
   LNONCOLLINEAR =      F non collinear calculations
   LSORBIT =      F    spin-orbit coupling
   INIWAV =      1    electr: 0-lowe 1-rand  2-diag
   LASPH  =      F    aspherical Exc in radial PAW
   METAGGA=      F    non-selfconsistent MetaGGA calc.

 Electronic Relaxation 1
   ENCUT  =  350.0 eV  25.72 Ry    5.07 a.u.   8.48  8.48 46.99*2*pi/ulx,y,z
   ENINI  =  350.0     initial cutoff
   ENAUG  =  359.0 eV  augmentation charge cutoff
   NELM   =     60;   NELMIN=  2; NELMDL= -5     # of ELM steps 
   EDIFF  = 0.1E-04   stopping-criterion for ELM
   LREAL  =      F    real-space projection
   NLSPLINE    = F    spline interpolate recip. space projectors
   LCOMPAT=      F    compatible to vasp.4.4
   GGA_COMPAT  = T    GGA compatible to vasp.4.4-vasp.4.6
   LMAXPAW     = -100 max onsite density
   LMAXMIX     =    2 max onsite mixed and CHGCAR
   VOSKOWN=      0    Vosko Wilk Nusair interpolation
   ROPT   =    0.00000   0.00000   0.00000
 Ionic relaxation
   EDIFFG = -.5E-01   stopping-criterion for IOM
   NSW    =      0    number of steps for IOM
   NBLOCK =      1;   KBLOCK =      1    inner block; outer block 
   IBRION =     -1    ionic relax: 0-MD 1-quasi-New 2-CG
   NFREE  =      1    steps in history (QN), initial steepest desc. (CG)
   ISIF   =      2    stress and relaxation
   IWAVPR =     10    prediction:  0-non 1-charg 2-wave 3-comb
   ISYM   =      2    0-nonsym 1-usesym 2-fastsym
   LCORR  =      T    Harris-Foulkes like correction to forces

   POTIM  = 0.5000    time-step for ionic-motion
   TEIN   =    0.0    initial temperature
   TEBEG  =    0.0;   TEEND  =   0.0 temperature during run
   SMASS  =  -3.00    Nose mass-parameter (am)
   estimated Nose-frequenzy (Omega)   =  0.10E-29 period in steps =****** mass=  -0.706E-27a.u.
   SCALEE = 1.0000    scale energy and forces
   NPACO  =    256;   APACO  = 16.0  distance and # of slots for P.C.
   PSTRESS=    0.0 pullay stress

  Mass of Ions in am
   POMASS = 196.97195.08192.22
  Ionic Valenz
   ZVAL   =  11.00 10.00  9.00
  Atomic Wigner-Seitz radii
   RWIGS  =  -1.00 -1.00 -1.00
  virtual crystal weights 
   VCA    =   1.00  1.00  1.00
   NELECT =     160.0000    total number of electrons
   NUPDOWN=      -1.0000    fix difference up-down

 DOS related values:
   EMIN   =  10.00;   EMAX   =-10.00  energy-range for DOS
   EFERMI =   0.00
   ISMEAR =     1;   SIGMA  =   0.20  broadening in eV -4-tet -1-fermi 0-gaus

 Electronic relaxation 2 (details)
   IALGO  =     38    algorithm
   LDIAG  =      T    sub-space diagonalisation (order eigenvalues)
   LSUBROT=      F    optimize rotation matrix (better conditioning)
   TURBO    =      0    0=normal 1=particle mesh
   IRESTART =      0    0=no restart 2=restart with 2 vectors
   NREBOOT  =      0    no. of reboots
   NMIN     =      0    reboot dimension
   EREF     =   0.00    reference energy to select bands
   IMIX   =      4    mixing-type and parameters
     AMIX     =   0.40;   BMIX     =  1.00
     AMIX_MAG =   1.60;   BMIX_MAG =  1.00
     AMIN     =   0.10
     WC   =   100.;   INIMIX=   1;  MIXPRE=   1;  MAXMIX= -45

 Intra band minimization:
   WEIMIN = 0.0000     energy-eigenvalue tresh-hold
   EBREAK =  0.26E-07  absolut break condition
   DEPER  =   0.30     relativ break condition  

   TIME   =   0.40     timestep for ELM

  volume/ion in A,a.u.               =      51.51       347.59
  Fermi-wavevector in a.u.,A,eV,Ry     =   0.947945  1.791357 12.226201  0.898600
  Thomas-Fermi vector in A             =   2.076087
 
 Write flags
   LWAVE        =      F    write WAVECAR
   LDOWNSAMPLE  =      F    k-point downsampling of WAVECAR
   LCHARG       =      F    write CHGCAR
   LVTOT        =      F    write LOCPOT, total local potential
   LVHAR        =      F    write LOCPOT, Hartree potential only
   LELF         =      F    write electronic localiz. function (ELF)
   LORBIT       =      0    0 simple, 1 ext, 2 COOP (PROOUT), +10 PAW based schemes


 Dipole corrections
   LMONO  =      F    monopole corrections only (constant potential shift)
   LDIPOL =      F    correct potential (dipole corrections)
   IDIPOL =      3    1-x, 2-y, 3-z, 4-all directions 
   EPSILON=  1.0000000 bulk dielectric constant

 Exchange correlation treatment:
   GGA     =    PE    GGA type
   LEXCH   =     8    internal setting for exchange type
   VOSKOWN=      0    Vosko Wilk Nusair interpolation
   LHFCALC =     F    Hartree Fock is set to
   LHFONE  =     F    Hartree Fock one center treatment
   AEXX    =    0.0000 exact exchange contribution

 Linear response parameters
   LEPSILON=     F    determine dielectric tensor
   LRPA    =     F    only Hartree local field effects (RPA)
   LNABLA  =     F    use nabla operator in PAW spheres
   LVEL    =     F    velocity operator in full k-point grid
   LINTERFAST=   F  fast interpolation
   KINTER  =     0    interpolate to denser k-point grid
   CSHIFT  =0.1000    complex shift for real part using Kramers Kronig
   OMEGAMAX=  -1.0    maximum frequency
   DEG_THRESHOLD= 0.2000000E-02 threshold for treating states as degnerate
   RTIME   =   -0.100 relaxation time in fs
  (WPLASMAI=    0.000 imaginary part of plasma frequency in eV, 0.658/RTIME)
   DFIELD  = 0.0000000 0.0000000 0.0000000 field for delta impulse in time
 
 Orbital magnetization related:
   ORBITALMAG=     F  switch on orbital magnetization
   LCHIMAG   =     F  perturbation theory with respect to B field
   DQ        =  0.001000  dq finite difference perturbation B field
   LLRAUG    =     F  two centre corrections for induced B field



--------------------------------------------------------------------------------------------------------


 Static calculation
 charge density and potential will be updated during run
 non-spin polarized calculation
 Variant of blocked Davidson
 Davidson routine will perform the subspace rotation
 perform sub-space diagonalisation
    after iterative eigenvector-optimisation
 modified Broyden-mixing scheme, WC =      100.0
 initial mixing is a Kerker type mixing with AMIX =  0.4000 and BMIX =      1.0000
 Hartree-type preconditioning will be used
 using additional bands           16
 reciprocal scheme for non local part
 use partial core corrections
 calculate Harris-corrections to forces 
   (improved forces if not selfconsistent)
 use gradient corrections 
 use of overlap-Matrix (Vanderbilt PP)
 Methfessel and Paxton  Order N= 1 SIGMA  =   0.20


--------------------------------------------------------------------------------------------------------


  energy-cutoff  :      350.00
  volume of cell :      824.13
      direct lattice vectors                 reciprocal lattice vectors
     5.557859300  0.000000000  0.000000000     0.179925390 -0.103879972  0.000000000
     2.778929650  4.813247345  0.000000000     0.000000000  0.207759944  0.000000000
     0.000000000  0.000000000 30.806959674     0.000000000  0.000000000  0.032460198

  length of vectors
     5.557859300  5.557859300 30.806959674     0.207759944  0.207759944  0.032460198


 
 k-points in units of 2pi/SCALE and weight: KPOINTS created by Atomic Simulation Env
   0.01124534  0.00649250  0.00000000       0.010
   0.00000000  0.01298500  0.00000000       0.021
   0.03373601 -0.00649250  0.00000000       0.021
   0.02249067  0.02596999  0.00000000       0.021
  -0.01124534  0.03246249  0.00000000       0.021
   0.05622668 -0.01947749  0.00000000       0.021
   0.04498135  0.03895499  0.00000000       0.021
  -0.01124534  0.05843248  0.00000000       0.021
   0.07871736 -0.03246249  0.00000000       0.021
   0.06747202  0.05193999  0.00000000       0.021
  -0.01124534  0.08440248  0.00000000       0.021
  -0.07871736  0.05843248  0.00000000       0.021
   0.08996269 -0.14283496  0.00000000       0.021
  -0.01124534  0.11037247  0.00000000       0.021
  -0.05622668  0.04544749  0.00000000       0.021
  -0.06747202 -0.02596999  0.00000000       0.021
  -0.01124534 -0.07141748  0.00000000       0.021
  -0.03373601  0.03246249  0.00000000       0.021
  -0.04498135 -0.01298500  0.00000000       0.021
  -0.01124534 -0.04544749  0.00000000       0.021
  -0.01124534  0.01947749  0.00000000       0.010
  -0.02249067  0.00000000  0.00000000       0.021
   0.03373601  0.01947749  0.00000000       0.010
   0.00000000  0.03895499  0.00000000       0.021
   0.05622668  0.00649250  0.00000000       0.021
   0.02249067  0.05193999  0.00000000       0.021
  -0.03373601  0.04544749  0.00000000       0.021
   0.07871736 -0.00649250  0.00000000       0.021
   0.04498135  0.06492498  0.00000000       0.021
  -0.03373601  0.07141748  0.00000000       0.021
  -0.07871736  0.08440248  0.00000000       0.021
   0.06747202 -0.12984997  0.00000000       0.021
  -0.03373601  0.09738747  0.00000000       0.021
  -0.05622668  0.07141748  0.00000000       0.021
   0.08996269 -0.11686497  0.00000000       0.021
  -0.03373601  0.12335747  0.00000000       0.021
  -0.03373601  0.05843248  0.00000000       0.010
  -0.06747202  0.00000000  0.00000000       0.021
   0.05622668  0.03246249  0.00000000       0.010
   0.00000000  0.06492498  0.00000000       0.021
   0.07871736  0.01947749  0.00000000       0.021
   0.02249067  0.07790998  0.00000000       0.021
  -0.05622668  0.05843248  0.00000000       0.021
  -0.07871736  0.11037247  0.00000000       0.021
   0.04498135 -0.11686497  0.00000000       0.021
  -0.05622668  0.08440248  0.00000000       0.021
  -0.05622668  0.09738747  0.00000000       0.010
   0.06747202 -0.10387997  0.00000000       0.021
   0.07871736  0.04544749  0.00000000       0.010
   0.00000000  0.09089498  0.00000000       0.021
  -0.07871736  0.13634246  0.00000000       0.010
   0.02249067 -0.10387997  0.00000000       0.021
 
 k-points in reciprocal lattice and weights: KPOINTS created by Atomic Simulation Env
   0.06250000  0.06250000  0.00000000       0.010
   0.00000000  0.06250000  0.00000000       0.021
   0.18750000  0.06250000  0.00000000       0.021
   0.12500000  0.18750000  0.00000000       0.021
  -0.06250000  0.12500000  0.00000000       0.021
   0.31250000  0.06250000  0.00000000       0.021
   0.25000000  0.31250000  0.00000000       0.021
  -0.06250000  0.25000000  0.00000000       0.021
   0.43750000  0.06250000  0.00000000       0.021
   0.37500000  0.43750000  0.00000000       0.021
  -0.06250000  0.37500000  0.00000000       0.021
  -0.43750000  0.06250000  0.00000000       0.021
   0.50000000 -0.43750000  0.00000000       0.021
  -0.06250000  0.50000000  0.00000000       0.021
  -0.31250000  0.06250000  0.00000000       0.021
  -0.37500000 -0.31250000  0.00000000       0.021
  -0.06250000 -0.37500000  0.00000000       0.021
  -0.18750000  0.06250000  0.00000000       0.021
  -0.25000000 -0.18750000  0.00000000       0.021
  -0.06250000 -0.25000000  0.00000000       0.021
  -0.06250000  0.06250000  0.00000000       0.010
  -0.12500000 -0.06250000  0.00000000       0.021
   0.18750000  0.18750000  0.00000000       0.010
   0.00000000  0.18750000  0.00000000       0.021
   0.31250000  0.18750000  0.00000000       0.021
   0.12500000  0.31250000  0.00000000       0.021
  -0.18750000  0.12500000  0.00000000       0.021
   0.43750000  0.18750000  0.00000000       0.021
   0.25000000  0.43750000  0.00000000       0.021
  -0.18750000  0.25000000  0.00000000       0.021
  -0.43750000  0.18750000  0.00000000       0.021
   0.37500000 -0.43750000  0.00000000       0.021
  -0.18750000  0.37500000  0.00000000       0.021
  -0.31250000  0.18750000  0.00000000       0.021
   0.50000000 -0.31250000  0.00000000       0.021
  -0.18750000  0.50000000  0.00000000       0.021
  -0.18750000  0.18750000  0.00000000       0.010
  -0.37500000 -0.18750000  0.00000000       0.021
   0.31250000  0.31250000  0.00000000       0.010
   0.00000000  0.31250000  0.00000000       0.021
   0.43750000  0.31250000  0.00000000       0.021
   0.12500000  0.43750000  0.00000000       0.021
  -0.31250000  0.12500000  0.00000000       0.021
  -0.43750000  0.31250000  0.00000000       0.021
   0.25000000 -0.43750000  0.00000000       0.021
  -0.31250000  0.25000000  0.00000000       0.021
  -0.31250000  0.31250000  0.00000000       0.010
   0.37500000 -0.31250000  0.00000000       0.021
   0.43750000  0.43750000  0.00000000       0.010
   0.00000000  0.43750000  0.00000000       0.021
  -0.43750000  0.43750000  0.00000000       0.010
   0.12500000 -0.43750000  0.00000000       0.021
 
 position of ions in fractional coordinates (direct lattice) 
   0.00000000  0.00000000  0.38952237
   0.50000000  0.00000000  0.38952237
   0.00000000  0.50000000  0.38952237
   0.50000000  0.50000000  0.38952237
   0.16666667  0.16666667  0.46468540
   0.66666667  0.16666667  0.46468540
   0.16666667  0.66666667  0.46468540
   0.66666667  0.66666667  0.46468540
   0.83333333  0.33333333  0.53920296
   0.33333333  0.33333333  0.53920296
   0.33333333  0.83333333  0.53920296
   0.00000000  0.00000000  0.61486043
   0.50000000  0.00000000  0.61486043
   0.00000000  0.50000000  0.61486043
   0.50000000  0.50000000  0.61486043
   0.83333333  0.83333333  0.53920296
 
 position of ions in cartesian coordinates  (Angst):
   0.00000000  0.00000000 12.00000000
   2.77892965  0.00000000 12.00000000
   1.38946483  2.40662367 12.00000000
   4.16839448  2.40662367 12.00000000
   1.38946483  0.80220789 14.31554441
   4.16839448  0.80220789 14.31554441
   2.77892965  3.20883156 14.31554441
   5.55785930  3.20883156 14.31554441
   5.55785930  1.60441578 16.61120399
   2.77892965  1.60441578 16.61120399
   4.16839448  4.01103945 16.61120399
   0.00000000  0.00000000 18.94198048
   2.77892965  0.00000000 18.94198048
   1.38946483  2.40662367 18.94198048
   4.16839448  2.40662367 18.94198048
   6.94732413  4.01103945 16.61120399
 


--------------------------------------------------------------------------------------------------------


 k-point  1 :   0.0625 0.0625 0.0000  plane waves:   12325
 k-point  2 :   0.0000 0.0625 0.0000  plane waves:   12325
 k-point  3 :   0.1875 0.0625 0.0000  plane waves:   12294
 k-point  4 :   0.1250 0.1875 0.0000  plane waves:   12294
 k-point  5 :  -0.0625 0.1250 0.0000  plane waves:   12294
 k-point  6 :   0.3125 0.0625 0.0000  plane waves:   12263
 k-point  7 :   0.2500 0.3125 0.0000  plane waves:   12263
 k-point  8 :  -0.0625 0.2500 0.0000  plane waves:   12263
 k-point  9 :   0.4375 0.0625 0.0000  plane waves:   12221
 k-point 10 :   0.3750 0.4375 0.0000  plane waves:   12221
 k-point 11 :  -0.0625 0.3750 0.0000  plane waves:   12221
 k-point 12 :  -0.4375 0.0625 0.0000  plane waves:   12211
 k-point 13 :   0.5000-0.4375 0.0000  plane waves:   12211
 k-point 14 :  -0.0625 0.5000 0.0000  plane waves:   12211
 k-point 15 :  -0.3125 0.0625 0.0000  plane waves:   12242
 k-point 16 :  -0.3750-0.3125 0.0000  plane waves:   12242
 k-point 17 :  -0.0625-0.3750 0.0000  plane waves:   12242
 k-point 18 :  -0.1875 0.0625 0.0000  plane waves:   12280
 k-point 19 :  -0.2500-0.1875 0.0000  plane waves:   12280
 k-point 20 :  -0.0625-0.2500 0.0000  plane waves:   12280
 k-point 21 :  -0.0625 0.0625 0.0000  plane waves:   12329
 k-point 22 :  -0.1250-0.0625 0.0000  plane waves:   12329
 k-point 23 :   0.1875 0.1875 0.0000  plane waves:   12277
 k-point 24 :   0.0000 0.1875 0.0000  plane waves:   12277
 k-point 25 :   0.3125 0.1875 0.0000  plane waves:   12288
 k-point 26 :   0.1250 0.3125 0.0000  plane waves:   12288
 k-point 27 :  -0.1875 0.1250 0.0000  plane waves:   12288
 k-point 28 :   0.4375 0.1875 0.0000  plane waves:   12234
 k-point 29 :   0.2500 0.4375 0.0000  plane waves:   12234
 k-point 30 :  -0.1875 0.2500 0.0000  plane waves:   12234
 k-point 31 :  -0.4375 0.1875 0.0000  plane waves:   12216
 k-point 32 :   0.3750-0.4375 0.0000  plane waves:   12216
 k-point 33 :  -0.1875 0.3750 0.0000  plane waves:   12216
 k-point 34 :  -0.3125 0.1875 0.0000  plane waves:   12215
 k-point 35 :   0.5000-0.3125 0.0000  plane waves:   12215
 k-point 36 :  -0.1875 0.5000 0.0000  plane waves:   12215
 k-point 37 :  -0.1875 0.1875 0.0000  plane waves:   12289
 k-point 38 :  -0.3750-0.1875 0.0000  plane waves:   12289
 k-point 39 :   0.3125 0.3125 0.0000  plane waves:   12275
 k-point 40 :   0.0000 0.3125 0.0000  plane waves:   12275
 k-point 41 :   0.4375 0.3125 0.0000  plane waves:   12239
 k-point 42 :   0.1250 0.4375 0.0000  plane waves:   12239
 k-point 43 :  -0.3125 0.1250 0.0000  plane waves:   12239
 k-point 44 :  -0.4375 0.3125 0.0000  plane waves:   12235
 k-point 45 :   0.2500-0.4375 0.0000  plane waves:   12235
 k-point 46 :  -0.3125 0.2500 0.0000  plane waves:   12235
 k-point 47 :  -0.3125 0.3125 0.0000  plane waves:   12232
 k-point 48 :   0.3750-0.3125 0.0000  plane waves:   12232
 k-point 49 :   0.4375 0.4375 0.0000  plane waves:   12200
 k-point 50 :   0.0000 0.4375 0.0000  plane waves:   12200
 k-point 51 :  -0.4375 0.4375 0.0000  plane waves:   12214
 k-point 52 :   0.1250-0.4375 0.0000  plane waves:   12214

 maximum and minimum number of plane-waves per node :     12329    12200

 maximum number of plane-waves:     12329
 maximum index in each direction: 
   IXMAX=    8   IYMAX=    8   IZMAX=   46
   IXMIN=   -8   IYMIN=   -8   IZMIN=  -46


 serial   3D FFT for wavefunctions
 parallel 3D FFT for charge:
    minimum data exchange during FFTs selected (reduces bandwidth)


 total amount of memory used by VASP MPI-rank0   362189. kBytes
=======================================================================

   base      :      30000. kBytes
   nonl-proj :     280273. kBytes
   fftplans  :       2015. kBytes
   grid      :       7641. kBytes
   one-center:        248. kBytes
   wavefun   :      42012. kBytes
 
     INWAV:  cpu time    0.0000: real time    0.0000
 Broyden mixing: mesh for mixing (old mesh)
   NGX = 17   NGY = 17   NGZ = 93
  (NGX  = 56   NGY  = 56   NGZ  =288)
  gives a total of  26877 points

 initial charge density was supplied:
 charge density of overlapping atoms calculated
 number of electron     160.0000000 magnetization 
 keeping initial charge density in first step


--------------------------------------------------------------------------------------------------------


 Maximum index for augmentation-charges          771 (set IRDMAX)


--------------------------------------------------------------------------------------------------------


 First call to EWALD:  gamma=   0.189
 Maximum number of real-space cells 5x 5x 1
 Maximum number of reciprocal cells 2x 2x 8

    FEWALD:  cpu time    0.0011: real time    0.0011


--------------------------------------- Iteration      1(   1)  ---------------------------------------


    POTLOK:  cpu time    0.0192: real time    0.0252
    SETDIJ:  cpu time    0.0023: real time    0.0023
     EDDAV:  cpu time    9.2458: real time    9.2497
       DOS:  cpu time    0.0018: real time    0.0019
    --------------------------------------------
      LOOP:  cpu time    9.2691: real time    9.2791

 eigenvalue-minimisations  :  9984
 total energy-change (2. order) : 0.9785501E+03  (-0.5549745E+04)
 number of electron     160.0000000 magnetization 
 augmentation part      160.0000000 magnetization 

 Free energy of the ion-electron system (eV)
  ---------------------------------------------------
  alpha Z        PSCENC =       303.52543553
  Ewald energy   TEWEN  =     97993.82862264
  -Hartree energ DENC   =   -110064.78898628
  -exchange      EXHF   =         0.00000000
  -V(xc)+E(xc)   XCENC  =        46.30325055
  PAW double counting   =     11171.21661038   -10711.84633960
  entropy T*S    EENTRO =         0.00048254
  eigenvalues    EBANDS =       546.61685128
  atomic energy  EATOM  =     11693.69420960
  Solvation  Ediel_sol  =         0.00000000
  ---------------------------------------------------
  free energy    TOTEN  =       978.55013664 eV

  energy without entropy =      978.54965410  energy(sigma->0) =      978.54997579


--------------------------------------------------------------------------------------------------------




--------------------------------------- Iteration      1(   2)  ---------------------------------------


     EDDAV:  cpu time   13.1780: real time   13.1810
       DOS:  cpu time    0.0016: real time    0.0016
    --------------------------------------------
      LOOP:  cpu time   13.1797: real time   13.1826

 eigenvalue-minimisations  : 14592
 total energy-change (2. order) :-0.1017833E+04  (-0.9863275E+03)
 number of electron     160.0000000 magnetization 
 augmentation part      160.0000000 magnetization 

 Free energy of the ion-electron system (eV)
  ---------------------------------------------------
  alpha Z        PSCENC =       303.52543553
  Ewald energy   TEWEN  =     97993.82862264
  -Hartree energ DENC   =   -110064.78898628
  -exchange      EXHF   =         0.00000000
  -V(xc)+E(xc)   XCENC  =        46.30325055
  PAW double counting   =     11171.21661038   -10711.84633960
  entropy T*S    EENTRO =        -0.00640420
  eigenvalues    EBANDS =      -471.20939727
  atomic energy  EATOM  =     11693.69420960
  Solvation  Ediel_sol  =         0.00000000
  ---------------------------------------------------
  free energy    TOTEN  =       -39.28299866 eV

  energy without entropy =      -39.27659446  energy(sigma->0) =      -39.28086393


--------------------------------------------------------------------------------------------------------




--------------------------------------- Iteration      1(   3)  ---------------------------------------


     EDDAV:  cpu time   11.3068: real time   11.3163
       DOS:  cpu time    0.0018: real time    0.0018
    --------------------------------------------
      LOOP:  cpu time   11.3086: real time   11.3180

 eigenvalue-minimisations  : 12432
 total energy-change (2. order) :-0.5820557E+02  (-0.5639923E+02)
 number of electron     160.0000000 magnetization 
 augmentation part      160.0000000 magnetization 

 Free energy of the ion-electron system (eV)
  ---------------------------------------------------
  alpha Z        PSCENC =       303.52543553
  Ewald energy   TEWEN  =     97993.82862264
  -Hartree energ DENC   =   -110064.78898628
  -exchange      EXHF   =         0.00000000
  -V(xc)+E(xc)   XCENC  =        46.30325055
  PAW double counting   =     11171.21661038   -10711.84633960
  entropy T*S    EENTRO =        -0.01476587
  eigenvalues    EBANDS =      -529.40660706
  atomic energy  EATOM  =     11693.69420960
  Solvation  Ediel_sol  =         0.00000000
  ---------------------------------------------------
  free energy    TOTEN  =       -97.48857012 eV

  energy without entropy =      -97.47380425  energy(sigma->0) =      -97.48364816


--------------------------------------------------------------------------------------------------------




--------------------------------------- Iteration      1(   4)  ---------------------------------------


     EDDAV:  cpu time   12.8171: real time   12.8188
       DOS:  cpu time    0.0018: real time    0.0018
    --------------------------------------------
      LOOP:  cpu time   12.8189: real time   12.8205

 eigenvalue-minimisations  : 14304
 total energy-change (2. order) :-0.1231902E+01  (-0.1225669E+01)
 number of electron     160.0000000 magnetization 
 augmentation part      160.0000000 magnetization 

 Free energy of the ion-electron system (eV)
  ---------------------------------------------------
  alpha Z        PSCENC =       303.52543553
  Ewald energy   TEWEN  =     97993.82862264
  -Hartree energ DENC   =   -110064.78898628
  -exchange      EXHF   =         0.00000000
  -V(xc)+E(xc)   XCENC  =        46.30325055
  PAW double counting   =     11171.21661038   -10711.84633960
  entropy T*S    EENTRO =        -0.01428016
  eigenvalues    EBANDS =      -530.63899474
  atomic energy  EATOM  =     11693.69420960
  Solvation  Ediel_sol  =         0.00000000
  ---------------------------------------------------
  free energy    TOTEN  =       -98.72047209 eV

  energy without entropy =      -98.70619193  energy(sigma->0) =      -98.71571204


--------------------------------------------------------------------------------------------------------




--------------------------------------- Iteration      1(   5)  ---------------------------------------


     EDDAV:  cpu time   13.6408: real time   13.6425
       DOS:  cpu time    0.0018: real time    0.0018
    CHARGE:  cpu time    0.3394: real time    0.3394
    MIXING:  cpu time    0.0010: real time    0.0011
    --------------------------------------------
      LOOP:  cpu time   13.9830: real time   13.9848

 eigenvalue-minimisations  : 15168
 total energy-change (2. order) :-0.3193032E-01  (-0.3187622E-01)
 number of electron     160.0000114 magnetization 
 augmentation part       46.9811249 magnetization 

 Broyden mixing:
  rms(total) = 0.41753E+01    rms(broyden)= 0.41752E+01
  rms(prec ) = 0.42045E+01
  weight for this iteration     100.00

 Free energy of the ion-electron system (eV)
  ---------------------------------------------------
  alpha Z        PSCENC =       303.52543553
  Ewald energy   TEWEN  =     97993.82862264
  -Hartree energ DENC   =   -110064.78898628
  -exchange      EXHF   =         0.00000000
  -V(xc)+E(xc)   XCENC  =        46.30325055
  PAW double counting   =     11171.21661038   -10711.84633960
  entropy T*S    EENTRO =        -0.01425790
  eigenvalues    EBANDS =      -530.67094733
  atomic energy  EATOM  =     11693.69420960
  Solvation  Ediel_sol  =         0.00000000
  ---------------------------------------------------
  free energy    TOTEN  =       -98.75240241 eV

  energy without entropy =      -98.73814452  energy(sigma->0) =      -98.74764978


--------------------------------------------------------------------------------------------------------




--------------------------------------- Iteration      1(   6)  ---------------------------------------


    POTLOK:  cpu time    0.0181: real time    0.0228
    SETDIJ:  cpu time    0.0022: real time    0.0022
     EDDAV:  cpu time   11.1027: real time   11.1041
       DOS:  cpu time    0.0018: real time    0.0018
    CHARGE:  cpu time    0.3386: real time    0.3387
    MIXING:  cpu time    0.0008: real time    0.0008
    --------------------------------------------
      LOOP:  cpu time   11.4642: real time   11.4704

 eigenvalue-minimisations  : 12240
 total energy-change (2. order) : 0.3996069E+01  (-0.2999094E+01)
 number of electron     160.0000109 magnetization 
 augmentation part       49.5785993 magnetization 

 Broyden mixing:
  rms(total) = 0.29486E+01    rms(broyden)= 0.29486E+01
  rms(prec ) = 0.30387E+01
  weight for this iteration     100.00

 eigenvalues of (default mixing * dielectric matrix)
  average eigenvalue GAMMA=   1.3517
  1.3517

 Free energy of the ion-electron system (eV)
  ---------------------------------------------------
  alpha Z        PSCENC =       303.52543553
  Ewald energy   TEWEN  =     97993.82862264
  -Hartree energ DENC   =   -109878.21174284
  -exchange      EXHF   =         0.00000000
  -V(xc)+E(xc)   XCENC  =        42.21771281
  PAW double counting   =     12328.62810555   -11892.40518577
  entropy T*S    EENTRO =        -0.03982315
  eigenvalues    EBANDS =      -685.99366828
  atomic energy  EATOM  =     11693.69420960
  Solvation  Ediel_sol  =         0.00000000
  ---------------------------------------------------
  free energy    TOTEN  =       -94.75633391 eV

  energy without entropy =      -94.71651076  energy(sigma->0) =      -94.74305953


--------------------------------------------------------------------------------------------------------




--------------------------------------- Iteration      1(   7)  ---------------------------------------


    POTLOK:  cpu time    0.0165: real time    0.0165
    SETDIJ:  cpu time    0.0021: real time    0.0021
     EDDAV:  cpu time   12.3238: real time   12.3251
       DOS:  cpu time    0.0018: real time    0.0018
    CHARGE:  cpu time    0.3384: real time    0.3385
    MIXING:  cpu time    0.0007: real time    0.0007
    --------------------------------------------
      LOOP:  cpu time   12.6833: real time   12.6847

 eigenvalue-minimisations  : 13728
 total energy-change (2. order) :-0.2554981E+02  (-0.1805159E+02)
 number of electron     160.0000129 magnetization 
 augmentation part       48.6750438 magnetization 

 Broyden mixing:
  rms(total) = 0.44188E+01    rms(broyden)= 0.44186E+01
  rms(prec ) = 0.49021E+01
  weight for this iteration     100.00

 eigenvalues of (default mixing * dielectric matrix)
  average eigenvalue GAMMA=   1.1803
  2.1008  0.2597

 Free energy of the ion-electron system (eV)
  ---------------------------------------------------
  alpha Z        PSCENC =       303.52543553
  Ewald energy   TEWEN  =     97993.82862264
  -Hartree energ DENC   =   -110048.10695796
  -exchange      EXHF   =         0.00000000
  -V(xc)+E(xc)   XCENC  =        40.65849451
  PAW double counting   =     13227.10596932   -12802.00831158
  entropy T*S    EENTRO =        -0.01106778
  eigenvalues    EBANDS =      -528.99253827
  atomic energy  EATOM  =     11693.69420960
  Solvation  Ediel_sol  =         0.00000000
  ---------------------------------------------------
  free energy    TOTEN  =      -120.30614398 eV

  energy without entropy =     -120.29507621  energy(sigma->0) =     -120.30245472


--------------------------------------------------------------------------------------------------------




--------------------------------------- Iteration      1(   8)  ---------------------------------------


    POTLOK:  cpu time    0.0174: real time    0.0208
    SETDIJ:  cpu time    0.0022: real time    0.0022
     EDDAV:  cpu time   13.5110: real time   13.5128
       DOS:  cpu time    0.0018: real time    0.0018
    CHARGE:  cpu time    0.3698: real time    0.3698
    MIXING:  cpu time    0.0007: real time    0.0007
    --------------------------------------------
      LOOP:  cpu time   13.9029: real time   13.9081

 eigenvalue-minimisations  : 15216
 total energy-change (2. order) : 0.2381728E+02  (-0.5866276E+01)
 number of electron     160.0000131 magnetization 
 augmentation part       50.4011323 magnetization 

 Broyden mixing:
  rms(total) = 0.18636E+01    rms(broyden)= 0.18635E+01
  rms(prec ) = 0.20993E+01
  weight for this iteration     100.00

 eigenvalues of (default mixing * dielectric matrix)
  average eigenvalue GAMMA=   0.9842
  2.1026  0.4747  0.3752

 Free energy of the ion-electron system (eV)
  ---------------------------------------------------
  alpha Z        PSCENC =       303.52543553
  Ewald energy   TEWEN  =     97993.82862264
  -Hartree energ DENC   =   -109893.63378133
  -exchange      EXHF   =         0.00000000
  -V(xc)+E(xc)   XCENC  =        39.94497737
  PAW double counting   =     14047.63875997   -13633.14245498
  entropy T*S    EENTRO =         0.00901141
  eigenvalues    EBANDS =      -648.35364444
  atomic energy  EATOM  =     11693.69420960
  Solvation  Ediel_sol  =         0.00000000
  ---------------------------------------------------
  free energy    TOTEN  =       -96.48886424 eV

  energy without entropy =      -96.49787565  energy(sigma->0) =      -96.49186804


--------------------------------------------------------------------------------------------------------




--------------------------------------- Iteration      1(   9)  ---------------------------------------


    POTLOK:  cpu time    0.0179: real time    0.0179
    SETDIJ:  cpu time    0.0024: real time    0.0024
     EDDAV:  cpu time   11.6481: real time   11.6496
       DOS:  cpu time    0.0017: real time    0.0017
    CHARGE:  cpu time    0.3387: real time    0.3387
    MIXING:  cpu time    0.0008: real time    0.0008
    --------------------------------------------
      LOOP:  cpu time   12.0096: real time   12.0111

 eigenvalue-minimisations  : 12864
 total energy-change (2. order) :-0.8147365E+01  (-0.8658523E+01)
 number of electron     160.0000114 magnetization 
 augmentation part       50.1088262 magnetization 

 Broyden mixing:
  rms(total) = 0.30091E+01    rms(broyden)= 0.30090E+01
  rms(prec ) = 0.39535E+01
  weight for this iteration     100.00

 eigenvalues of (default mixing * dielectric matrix)
  average eigenvalue GAMMA=   0.8705
  2.1487  0.8660  0.3128  0.1546

 Free energy of the ion-electron system (eV)
  ---------------------------------------------------
  alpha Z        PSCENC =       303.52543553
  Ewald energy   TEWEN  =     97993.82862264
  -Hartree energ DENC   =   -109880.43297158
  -exchange      EXHF   =         0.00000000
  -V(xc)+E(xc)   XCENC  =        40.34039470
  PAW double counting   =     14165.99155536   -13750.88499835
  entropy T*S    EENTRO =         0.02060439
  eigenvalues    EBANDS =      -670.71908108
  atomic energy  EATOM  =     11693.69420960
  Solvation  Ediel_sol  =         0.00000000
  ---------------------------------------------------
  free energy    TOTEN  =      -104.63622879 eV

  energy without entropy =     -104.65683317  energy(sigma->0) =     -104.64309691


--------------------------------------------------------------------------------------------------------




--------------------------------------- Iteration      1(  10)  ---------------------------------------


    POTLOK:  cpu time    0.0178: real time    0.0180
    SETDIJ:  cpu time    0.0022: real time    0.0022
     EDDAV:  cpu time   13.0103: real time   13.0118
       DOS:  cpu time    0.0018: real time    0.0018
    CHARGE:  cpu time    0.3391: real time    0.3392
    MIXING:  cpu time    0.0007: real time    0.0007
    --------------------------------------------
      LOOP:  cpu time   13.3720: real time   13.3737

 eigenvalue-minimisations  : 14520
 total energy-change (2. order) : 0.8647955E+01  (-0.6406506E+01)
 number of electron     160.0000112 magnetization 
 augmentation part       50.2013465 magnetization 

 Broyden mixing:
  rms(total) = 0.17690E+01    rms(broyden)= 0.17689E+01
  rms(prec ) = 0.21659E+01
  weight for this iteration     100.00

 eigenvalues of (default mixing * dielectric matrix)
  average eigenvalue GAMMA=   0.7557
  2.2153  0.9062  0.2718  0.2718  0.1133

 Free energy of the ion-electron system (eV)
  ---------------------------------------------------
  alpha Z        PSCENC =       303.52543553
  Ewald energy   TEWEN  =     97993.82862264
  -Hartree energ DENC   =   -109884.82570843
  -exchange      EXHF   =         0.00000000
  -V(xc)+E(xc)   XCENC  =        40.46368733
  PAW double counting   =     14285.92803579   -13870.78766456
  entropy T*S    EENTRO =        -0.01611742
  eigenvalues    EBANDS =      -657.79877401
  atomic energy  EATOM  =     11693.69420960
  Solvation  Ediel_sol  =         0.00000000
  ---------------------------------------------------
  free energy    TOTEN  =       -95.98827355 eV

  energy without entropy =      -95.97215613  energy(sigma->0) =      -95.98290107


--------------------------------------------------------------------------------------------------------




--------------------------------------- Iteration      1(  11)  ---------------------------------------


    POTLOK:  cpu time    0.0175: real time    0.0230
    SETDIJ:  cpu time    0.0024: real time    0.0024
     EDDAV:  cpu time   11.5642: real time   11.5657
       DOS:  cpu time    0.0019: real time    0.0018
    CHARGE:  cpu time    0.3377: real time    0.3377
    MIXING:  cpu time    0.0008: real time    0.0008
    --------------------------------------------
      LOOP:  cpu time   11.9245: real time   11.9315

 eigenvalue-minimisations  : 12816
 total energy-change (2. order) : 0.3266638E+01  (-0.1540091E+01)
 number of electron     160.0000116 magnetization 
 augmentation part       50.1674747 magnetization 

 Broyden mixing:
  rms(total) = 0.57372E+00    rms(broyden)= 0.57362E+00
  rms(prec ) = 0.59844E+00
  weight for this iteration     100.00

 eigenvalues of (default mixing * dielectric matrix)
  average eigenvalue GAMMA=   0.7125
  2.0347  0.7299  0.7299  0.3325  0.3325  0.1155

 Free energy of the ion-electron system (eV)
  ---------------------------------------------------
  alpha Z        PSCENC =       303.52543553
  Ewald energy   TEWEN  =     97993.82862264
  -Hartree energ DENC   =   -109887.48015223
  -exchange      EXHF   =         0.00000000
  -V(xc)+E(xc)   XCENC  =        40.49287296
  PAW double counting   =     14364.37807556   -13949.72183332
  entropy T*S    EENTRO =        -0.01689143
  eigenvalues    EBANDS =      -651.42197451
  atomic energy  EATOM  =     11693.69420960
  Solvation  Ediel_sol  =         0.00000000
  ---------------------------------------------------
  free energy    TOTEN  =       -92.72163520 eV

  energy without entropy =      -92.70474378  energy(sigma->0) =      -92.71600473


--------------------------------------------------------------------------------------------------------




--------------------------------------- Iteration      1(  12)  ---------------------------------------


    POTLOK:  cpu time    0.0172: real time    0.0172
    SETDIJ:  cpu time    0.0022: real time    0.0022
     EDDAV:  cpu time   11.5408: real time   11.5422
       DOS:  cpu time    0.0017: real time    0.0017
    CHARGE:  cpu time    0.3391: real time    0.3391
    MIXING:  cpu time    0.0008: real time    0.0008
    --------------------------------------------
      LOOP:  cpu time   11.9017: real time   11.9032

 eigenvalue-minimisations  : 12816
 total energy-change (2. order) :-0.1244159E+00  (-0.3698893E+00)
 number of electron     160.0000117 magnetization 
 augmentation part       50.1452366 magnetization 

 Broyden mixing:
  rms(total) = 0.71727E+00    rms(broyden)= 0.71722E+00
  rms(prec ) = 0.85543E+00
  weight for this iteration     100.00

 eigenvalues of (default mixing * dielectric matrix)
  average eigenvalue GAMMA=   0.6951
  2.1132  0.9660  0.5421  0.5421  0.2943  0.2943  0.1135

 Free energy of the ion-electron system (eV)
  ---------------------------------------------------
  alpha Z        PSCENC =       303.52543553
  Ewald energy   TEWEN  =     97993.82862264
  -Hartree energ DENC   =   -109882.29597305
  -exchange      EXHF   =         0.00000000
  -V(xc)+E(xc)   XCENC  =        40.62649938
  PAW double counting   =     14271.12240782   -13855.72492142
  entropy T*S    EENTRO =        -0.03711323
  eigenvalues    EBANDS =      -657.58521832
  atomic energy  EATOM  =     11693.69420960
  Solvation  Ediel_sol  =         0.00000000
  ---------------------------------------------------
  free energy    TOTEN  =       -92.84605106 eV

  energy without entropy =      -92.80893783  energy(sigma->0) =      -92.83367998


--------------------------------------------------------------------------------------------------------




--------------------------------------- Iteration      1(  13)  ---------------------------------------


    POTLOK:  cpu time    0.0177: real time    0.0219
    SETDIJ:  cpu time    0.0022: real time    0.0022
     EDDAV:  cpu time   11.2765: real time   11.2779
       DOS:  cpu time    0.0018: real time    0.0018
    CHARGE:  cpu time    0.3385: real time    0.3385
    MIXING:  cpu time    0.0010: real time    0.0010
    --------------------------------------------
      LOOP:  cpu time   11.6377: real time   11.6434

 eigenvalue-minimisations  : 12408
 total energy-change (2. order) : 0.2780512E+00  (-0.2511277E+00)
 number of electron     160.0000117 magnetization 
 augmentation part       50.1388363 magnetization 

 Broyden mixing:
  rms(total) = 0.38537E+00    rms(broyden)= 0.38534E+00
  rms(prec ) = 0.43607E+00
  weight for this iteration     100.00

 eigenvalues of (default mixing * dielectric matrix)
  average eigenvalue GAMMA=   0.7096
  2.2481  0.9841  0.7204  0.7204  0.3150  0.3150  0.2602  0.1138

 Free energy of the ion-electron system (eV)
  ---------------------------------------------------
  alpha Z        PSCENC =       303.52543553
  Ewald energy   TEWEN  =     97993.82862264
  -Hartree energ DENC   =   -109883.31411208
  -exchange      EXHF   =         0.00000000
  -V(xc)+E(xc)   XCENC  =        40.57919850
  PAW double counting   =     14294.68113129   -13879.67373333
  entropy T*S    EENTRO =        -0.01470212
  eigenvalues    EBANDS =      -655.87404984
  atomic energy  EATOM  =     11693.69420960
  Solvation  Ediel_sol  =         0.00000000
  ---------------------------------------------------
  free energy    TOTEN  =       -92.56799982 eV

  energy without entropy =      -92.55329770  energy(sigma->0) =      -92.56309911


--------------------------------------------------------------------------------------------------------




--------------------------------------- Iteration      1(  14)  ---------------------------------------


    POTLOK:  cpu time    0.0188: real time    0.0190
    SETDIJ:  cpu time    0.0024: real time    0.0024
     EDDAV:  cpu time   12.3725: real time   12.3743
       DOS:  cpu time    0.0017: real time    0.0017
    CHARGE:  cpu time    0.3387: real time    0.3387
    MIXING:  cpu time    0.0009: real time    0.0009
    --------------------------------------------
      LOOP:  cpu time   12.7350: real time   12.7369

 eigenvalue-minimisations  : 13752
 total energy-change (2. order) : 0.6340886E-01  (-0.9088971E-01)
 number of electron     160.0000119 magnetization 
 augmentation part       50.1145399 magnetization 

 Broyden mixing:
  rms(total) = 0.22954E+00    rms(broyden)= 0.22949E+00
  rms(prec ) = 0.24064E+00
  weight for this iteration     100.00

 eigenvalues of (default mixing * dielectric matrix)
  average eigenvalue GAMMA=   0.7206
  2.2828  1.1053  0.8874  0.8874  0.3797  0.2933  0.2933  0.1138  0.2420

 Free energy of the ion-electron system (eV)
  ---------------------------------------------------
  alpha Z        PSCENC =       303.52543553
  Ewald energy   TEWEN  =     97993.82862264
  -Hartree energ DENC   =   -109889.12457412
  -exchange      EXHF   =         0.00000000
  -V(xc)+E(xc)   XCENC  =        40.55835074
  PAW double counting   =     14309.54686896   -13894.92585868
  entropy T*S    EENTRO =        -0.02685815
  eigenvalues    EBANDS =      -649.58078746
  atomic energy  EATOM  =     11693.69420960
  Solvation  Ediel_sol  =         0.00000000
  ---------------------------------------------------
  free energy    TOTEN  =       -92.50459095 eV

  energy without entropy =      -92.47773280  energy(sigma->0) =      -92.49563824


--------------------------------------------------------------------------------------------------------




--------------------------------------- Iteration      1(  15)  ---------------------------------------


    POTLOK:  cpu time    0.0173: real time    0.0173
    SETDIJ:  cpu time    0.0024: real time    0.0024
     EDDAV:  cpu time   12.7840: real time   12.7855
       DOS:  cpu time    0.0018: real time    0.0018
    CHARGE:  cpu time    0.3403: real time    0.3404
    MIXING:  cpu time    0.0010: real time    0.0010
    --------------------------------------------
      LOOP:  cpu time   13.1468: real time   13.1483

 eigenvalue-minimisations  : 14232
 total energy-change (2. order) :-0.8746884E-02  (-0.2603856E-01)
 number of electron     160.0000119 magnetization 
 augmentation part       50.1016856 magnetization 

 Broyden mixing:
  rms(total) = 0.23657E+00    rms(broyden)= 0.23656E+00
  rms(prec ) = 0.26974E+00
  weight for this iteration     100.00

 eigenvalues of (default mixing * dielectric matrix)
  average eigenvalue GAMMA=   0.6966
  2.2418  1.0732  1.0732  0.9213  0.4240  0.2992  0.2992  0.1138  0.2821  0.2387

 Free energy of the ion-electron system (eV)
  ---------------------------------------------------
  alpha Z        PSCENC =       303.52543553
  Ewald energy   TEWEN  =     97993.82862264
  -Hartree energ DENC   =   -109891.48637651
  -exchange      EXHF   =         0.00000000
  -V(xc)+E(xc)   XCENC  =        40.56378582
  PAW double counting   =     14284.98772332   -13870.38989719
  entropy T*S    EENTRO =        -0.02092932
  eigenvalues    EBANDS =      -647.21591171
  atomic energy  EATOM  =     11693.69420960
  Solvation  Ediel_sol  =         0.00000000
  ---------------------------------------------------
  free energy    TOTEN  =       -92.51333784 eV

  energy without entropy =      -92.49240852  energy(sigma->0) =      -92.50636140


--------------------------------------------------------------------------------------------------------




--------------------------------------- Iteration      1(  16)  ---------------------------------------


    POTLOK:  cpu time    0.0175: real time    0.0229
    SETDIJ:  cpu time    0.0022: real time    0.0022
     EDDAV:  cpu time   12.0772: real time   12.0789
       DOS:  cpu time    0.0017: real time    0.0017
    CHARGE:  cpu time    0.3399: real time    0.3400
    MIXING:  cpu time    0.0012: real time    0.0012
    --------------------------------------------
      LOOP:  cpu time   12.4396: real time   12.4468

 eigenvalue-minimisations  : 13488
 total energy-change (2. order) : 0.1525685E-01  (-0.2717034E-02)
 number of electron     160.0000119 magnetization 
 augmentation part       50.0931036 magnetization 

 Broyden mixing:
  rms(total) = 0.18871E+00    rms(broyden)= 0.18871E+00
  rms(prec ) = 0.21276E+00
  weight for this iteration     100.00

 eigenvalues of (default mixing * dielectric matrix)
  average eigenvalue GAMMA=   0.7756
  2.0675  2.0675  1.2980  0.6020  0.6020  0.5988  0.1138  0.3084  0.3084  0.3343
  0.2311

 Free energy of the ion-electron system (eV)
  ---------------------------------------------------
  alpha Z        PSCENC =       303.52543553
  Ewald energy   TEWEN  =     97993.82862264
  -Hartree energ DENC   =   -109892.82057239
  -exchange      EXHF   =         0.00000000
  -V(xc)+E(xc)   XCENC  =        40.59236223
  PAW double counting   =     14255.00553478   -13840.27129141
  entropy T*S    EENTRO =        -0.02232304
  eigenvalues    EBANDS =      -646.03005893
  atomic energy  EATOM  =     11693.69420960
  Solvation  Ediel_sol  =         0.00000000
  ---------------------------------------------------
  free energy    TOTEN  =       -92.49808099 eV

  energy without entropy =      -92.47575795  energy(sigma->0) =      -92.49063997


--------------------------------------------------------------------------------------------------------




--------------------------------------- Iteration      1(  17)  ---------------------------------------


    POTLOK:  cpu time    0.0172: real time    0.0172
    SETDIJ:  cpu time    0.0022: real time    0.0022
     EDDAV:  cpu time   10.9968: real time   10.9981
       DOS:  cpu time    0.0019: real time    0.0019
    CHARGE:  cpu time    0.3427: real time    0.3427
    MIXING:  cpu time    0.0011: real time    0.0011
    --------------------------------------------
      LOOP:  cpu time   11.3619: real time   11.3633

 eigenvalue-minimisations  : 12048
 total energy-change (2. order) : 0.2090047E-01  (-0.7030143E-02)
 number of electron     160.0000119 magnetization 
 augmentation part       50.0912033 magnetization 

 Broyden mixing:
  rms(total) = 0.99643E-01    rms(broyden)= 0.99634E-01
  rms(prec ) = 0.11047E+00
  weight for this iteration     100.00

 eigenvalues of (default mixing * dielectric matrix)
  average eigenvalue GAMMA=   0.7897
  2.2029  2.2029  1.4030  0.6705  0.6705  0.6922  0.1138  0.3046  0.3046  0.3624
  0.3172  0.2314

 Free energy of the ion-electron system (eV)
  ---------------------------------------------------
  alpha Z        PSCENC =       303.52543553
  Ewald energy   TEWEN  =     97993.82862264
  -Hartree energ DENC   =   -109893.99904703
  -exchange      EXHF   =         0.00000000
  -V(xc)+E(xc)   XCENC  =        40.63127687
  PAW double counting   =     14207.02994330   -13792.11137232
  entropy T*S    EENTRO =        -0.02292505
  eigenvalues    EBANDS =      -645.05332405
  atomic energy  EATOM  =     11693.69420960
  Solvation  Ediel_sol  =         0.00000000
  ---------------------------------------------------
  free energy    TOTEN  =       -92.47718052 eV

  energy without entropy =      -92.45425547  energy(sigma->0) =      -92.46953883


--------------------------------------------------------------------------------------------------------




--------------------------------------- Iteration      1(  18)  ---------------------------------------


    POTLOK:  cpu time    0.0179: real time    0.0235
    SETDIJ:  cpu time    0.0022: real time    0.0022
     EDDAV:  cpu time   12.7718: real time   12.7732
       DOS:  cpu time    0.0018: real time    0.0018
    CHARGE:  cpu time    0.3443: real time    0.3443
    MIXING:  cpu time    0.0014: real time    0.0014
    --------------------------------------------
      LOOP:  cpu time   13.1393: real time   13.1464

 eigenvalue-minimisations  : 14280
 total energy-change (2. order) : 0.8287639E-02  (-0.2180771E-02)
 number of electron     160.0000118 magnetization 
 augmentation part       50.0914620 magnetization 

 Broyden mixing:
  rms(total) = 0.54137E-01    rms(broyden)= 0.54133E-01
  rms(prec ) = 0.58045E-01
  weight for this iteration     100.00

 eigenvalues of (default mixing * dielectric matrix)
  average eigenvalue GAMMA=   0.7966
  2.2345  2.2345  1.4550  0.7706  0.7706  0.6282  0.6282  0.1138  0.3072  0.3072
  0.3379  0.3379  0.2305

 Free energy of the ion-electron system (eV)
  ---------------------------------------------------
  alpha Z        PSCENC =       303.52543553
  Ewald energy   TEWEN  =     97993.82862264
  -Hartree energ DENC   =   -109894.74368196
  -exchange      EXHF   =         0.00000000
  -V(xc)+E(xc)   XCENC  =        40.64929168
  PAW double counting   =     14195.79852633   -13780.83914286
  entropy T*S    EENTRO =        -0.02233282
  eigenvalues    EBANDS =      -644.35982101
  atomic energy  EATOM  =     11693.69420960
  Solvation  Ediel_sol  =         0.00000000
  ---------------------------------------------------
  free energy    TOTEN  =       -92.46889288 eV

[...]
     80      -0.8381      1.35541
     81      -0.7387      0.54371
     82      -0.6710      0.14228
     83      -0.5994     -0.04535
     84      -0.5550     -0.07072
     85      -0.3538     -0.00777
     86      -0.2690     -0.00127
     87       1.1389     -0.00000
     88       1.1637     -0.00000
     89       1.4438     -0.00000
     90       1.6036     -0.00000
     91       1.8003     -0.00000
     92       1.8376     -0.00000
     93       2.7669     -0.00000
     94       2.8788     -0.00000
     95       3.2892     -0.00000
     96       4.3735     -0.00000

 k-point    51 :      -0.4375    0.4375    0.0000
  band No.  band energies     occupation 
      1      -8.3083      2.00000
      2      -8.2744      2.00000
      3      -7.3066      2.00000
      4      -7.2460      2.00000
      5      -6.8282      2.00000
      6      -6.5825      2.00000
      7      -6.4990      2.00000
      8      -6.4437      2.00000
      9      -6.3446      2.00000
     10      -6.2595      2.00000
     11      -6.1998      2.00000
     12      -6.1302      2.00000
     13      -6.1199      2.00000
     14      -5.9383      2.00000
     15      -5.7856      2.00000
     16      -5.6985      2.00000
     17      -5.6867      2.00000
     18      -5.6718      2.00000
     19      -5.5530      2.00000
     20      -5.4156      2.00000
     21      -5.3180      2.00000
     22      -5.2887      2.00000
     23      -5.2645      2.00000
     24      -5.1973      2.00000
     25      -5.1354      2.00000
     26      -5.0855      2.00000
     27      -5.0689      2.00000
     28      -4.9666      2.00000
     29      -4.8074      2.00000
     30      -4.7157      2.00000
     31      -4.6660      2.00000
     32      -4.6011      2.00000
     33      -4.5585      2.00000
     34      -4.4373      2.00000
     35      -4.4033      2.00000
     36      -4.3156      2.00000
     37      -4.2198      2.00000
     38      -4.1594      2.00000
     39      -4.1074      2.00000
     40      -4.0889      2.00000
     41      -4.0761      2.00000
     42      -3.9319      2.00000
     43      -3.8367      2.00000
     44      -3.7115      2.00000
     45      -3.7013      2.00000
     46      -3.6771      2.00000
     47      -3.6412      2.00000
     48      -3.6304      2.00000
     49      -3.5759      2.00000
     50      -3.5462      2.00000
     51      -3.3932      2.00000
     52      -3.2907      2.00000
     53      -3.1294      2.00000
     54      -2.9958      2.00000
     55      -2.9480      2.00000
     56      -2.8755      2.00000
     57      -2.8573      2.00000
     58      -2.7921      2.00000
     59      -2.6081      2.00000
     60      -2.5561      2.00000
     61      -2.5043      2.00000
     62      -2.4877      2.00000
     63      -2.4219      2.00000
     64      -2.3067      2.00000
     65      -2.1894      2.00000
     66      -2.1622      2.00000
     67      -2.1375      2.00000
     68      -2.0962      2.00000
     69      -1.9570      2.00000
     70      -1.9399      2.00000
     71      -1.9114      2.00000
     72      -1.8194      2.00000
     73      -1.7569      2.00000
     74      -1.6427      2.00000
     75      -1.4630      2.00002
     76      -1.3149      2.00147
     77      -1.2757      2.00352
     78      -1.1499      2.03085
     79      -0.9696      2.01282
     80      -0.8816      1.66245
     81      -0.8704      1.59079
     82      -0.7526      0.64974
     83      -0.6295      0.00659
     84      -0.4835     -0.05006
     85      -0.4350     -0.02887
     86      -0.3287     -0.00475
     87       0.2512     -0.00000
     88       0.4532     -0.00000
     89       1.4295     -0.00000
     90       1.5636     -0.00000
     91       1.5868     -0.00000
     92       2.3990     -0.00000
     93       3.1243     -0.00000
     94       3.4460     -0.00000
     95       3.9435     -0.00000
     96       4.0160     -0.00000

 k-point    52 :       0.1250   -0.4375    0.0000
  band No.  band energies     occupation 
      1      -8.2982      2.00000
      2      -8.2844      2.00000
      3      -7.3055      2.00000
      4      -7.2465      2.00000
      5      -6.8277      2.00000
      6      -6.5735      2.00000
      7      -6.5043      2.00000
      8      -6.4455      2.00000
      9      -6.3407      2.00000
     10      -6.2580      2.00000
     11      -6.1937      2.00000
     12      -6.1388      2.00000
     13      -6.1275      2.00000
     14      -5.9372      2.00000
     15      -5.7977      2.00000
     16      -5.7024      2.00000
     17      -5.6851      2.00000
     18      -5.6581      2.00000
     19      -5.5353      2.00000
     20      -5.4387      2.00000
     21      -5.3533      2.00000
     22      -5.2754      2.00000
     23      -5.2578      2.00000
     24      -5.2065      2.00000
     25      -5.1348      2.00000
     26      -5.0802      2.00000
     27      -5.0425      2.00000
     28      -4.9990      2.00000
     29      -4.7534      2.00000
     30      -4.7278      2.00000
     31      -4.6402      2.00000
     32      -4.5932      2.00000
     33      -4.5539      2.00000
     34      -4.4673      2.00000
     35      -4.4362      2.00000
     36      -4.3032      2.00000
     37      -4.2322      2.00000
     38      -4.1564      2.00000
     39      -4.1143      2.00000
     40      -4.0864      2.00000
     41      -4.0673      2.00000
     42      -3.9433      2.00000
     43      -3.8329      2.00000
     44      -3.7095      2.00000
     45      -3.6946      2.00000
     46      -3.6825      2.00000
     47      -3.6428      2.00000
     48      -3.6056      2.00000
     49      -3.5963      2.00000
     50      -3.5410      2.00000
     51      -3.3904      2.00000
     52      -3.2746      2.00000
     53      -3.1535      2.00000
     54      -2.9834      2.00000
     55      -2.9330      2.00000
     56      -2.8818      2.00000
     57      -2.8586      2.00000
     58      -2.7930      2.00000
     59      -2.6659      2.00000
     60      -2.5582      2.00000
     61      -2.5293      2.00000
     62      -2.4263      2.00000
     63      -2.3594      2.00000
     64      -2.3255      2.00000
     65      -2.2081      2.00000
     66      -2.1856      2.00000
     67      -2.1314      2.00000
     68      -2.0857      2.00000
     69      -2.0237      2.00000
     70      -1.9316      2.00000
     71      -1.9037      2.00000
     72      -1.7867      2.00000
     73      -1.7050      2.00000
     74      -1.6563      2.00000
     75      -1.4515      2.00004
     76      -1.3504      2.00062
     77      -1.2807      2.00317
     78      -1.1208      2.04347
     79      -0.9824      2.03462
     80      -0.9501      1.96697
     81      -0.7726      0.81145
     82      -0.7505      0.63368
     83      -0.6920      0.24338
     84      -0.4691     -0.04340
     85      -0.4145     -0.02162
     86      -0.3363     -0.00554
     87       0.2441     -0.00000
     88       0.4533     -0.00000
     89       1.4328     -0.00000
     90       1.5251     -0.00000
     91       1.6200     -0.00000
     92       2.3942     -0.00000
     93       3.1329     -0.00000
     94       3.4444     -0.00000
     95       3.9718     -0.00000
     96       3.9887     -0.00000


--------------------------------------------------------------------------------------------------------


 soft charge-density along one line, spin component           1
         0         1         2         3         4         5         6         7         8         9
 total charge-density along one line
 
 pseudopotential strength for first ion, spin component:           1
 -8.070   0.001   0.000  -0.005   0.000  -8.216   0.001   0.000
  0.001  -7.993   0.000  -0.000  -0.006   0.001  -8.140   0.000
  0.000   0.000  -7.983   0.000   0.000   0.000   0.000  -8.131
 -0.005  -0.000   0.000  -7.993   0.001  -0.005  -0.000   0.000
  0.000  -0.006   0.000   0.001  -8.070   0.000  -0.006   0.000
 -8.216   0.001   0.000  -0.005   0.000  -8.346   0.001   0.000
  0.001  -8.140   0.000  -0.000  -0.006   0.001  -8.272   0.000
  0.000   0.000  -8.131   0.000   0.000   0.000   0.000  -8.263
 -0.005  -0.000   0.000  -8.141   0.001  -0.005  -0.000   0.000
  0.000  -0.006   0.000   0.001  -8.216   0.000  -0.006   0.000
  0.000  -0.000  -0.025  -0.000   0.000   0.000  -0.000  -0.025
  0.000  -0.000  -0.036  -0.000   0.000   0.000  -0.000  -0.036
 -0.000  -0.001   0.000   0.000   0.000  -0.000  -0.000   0.000
  0.000  -0.000  -0.003  -0.000   0.000   0.000  -0.000  -0.002
  0.000   0.000   0.000  -0.001  -0.000   0.000   0.000   0.000
 -0.000   0.001   0.000   0.000   0.001  -0.000   0.001   0.000
  0.000  -0.000  -0.001  -0.000   0.000   0.000  -0.000  -0.001
  0.000   0.000   0.000   0.001  -0.000   0.001   0.000   0.000
 total augmentation occupancy for first ion, spin component:           1
  4.857   0.013   0.016  -0.016   0.023  -3.026  -0.010  -0.012  -0.068  -0.018   0.001  -0.002   0.000  -0.001  -0.051  -0.000
  0.013   4.868  -0.003   0.005  -0.032  -0.010  -2.594   0.002  -0.004  -0.054   0.004  -0.002  -0.230   0.001   0.000   0.012
  0.016  -0.003   5.527  -0.005   0.009  -0.013   0.002  -3.332   0.004  -0.007   0.839  -0.069   0.000  -0.390   0.001   0.000
 -0.016   0.005  -0.005   4.874   0.013  -0.066  -0.004   0.004  -2.598  -0.010   0.007  -0.004   0.000   0.002  -0.230   0.000
  0.023  -0.032   0.009   0.013   4.831  -0.018  -0.056  -0.007  -0.010  -3.006   0.001  -0.001  -0.052  -0.001   0.000   0.002
 -3.026  -0.010  -0.013  -0.066  -0.018   3.058   0.007   0.010   0.130   0.014  -0.002   0.002  -0.000   0.001   0.048   0.000
 -0.010  -2.594   0.002  -0.004  -0.056   0.007   2.281  -0.002   0.003   0.121  -0.002   0.001   0.213  -0.001  -0.000  -0.010
 -0.012   0.002  -3.332   0.004  -0.007   0.010  -0.002   3.084  -0.004   0.006  -0.765   0.079  -0.000   0.387  -0.000   0.000
 -0.068  -0.004   0.004  -2.598  -0.010   0.130   0.003  -0.004   2.284   0.007  -0.004   0.002  -0.000  -0.001   0.213  -0.000
 -0.018  -0.054  -0.007  -0.010  -3.006   0.014   0.121   0.006   0.007   3.042  -0.001   0.001   0.048   0.000  -0.000  -0.002
  0.001   0.004   0.839   0.007   0.001  -0.002  -0.002  -0.765  -0.004  -0.001   2.565  -0.589  -0.000   0.172  -0.000  -0.000
 -0.002  -0.002  -0.069  -0.004  -0.001   0.002   0.001   0.079   0.002   0.001  -0.589   0.175   0.000  -0.079   0.000  -0.000
  0.000  -0.230   0.000   0.000  -0.052  -0.000   0.213  -0.000  -0.000   0.048  -0.000   0.000   0.235   0.000  -0.000  -0.007
 -0.001   0.001  -0.390   0.002  -0.001   0.001  -0.001   0.387  -0.001   0.000   0.172  -0.079   0.000   0.134   0.000   0.000
 -0.051   0.000   0.001  -0.230   0.000   0.048  -0.000  -0.000   0.213  -0.000  -0.000   0.000  -0.000   0.000   0.235   0.000
 -0.000   0.012   0.000   0.000   0.002   0.000  -0.010   0.000  -0.000  -0.002  -0.000  -0.000  -0.007   0.000   0.000   0.000
  0.000  -0.000   0.010  -0.000   0.000  -0.000   0.000  -0.011   0.000  -0.000  -0.009   0.003   0.000  -0.004   0.000  -0.000
  0.002   0.000   0.000   0.012  -0.000  -0.002  -0.000   0.000  -0.010   0.000  -0.000  -0.000   0.000   0.000  -0.007  -0.000


------------------------ aborting loop because EDIFF is reached ----------------------------------------



 DIPCOR: dipole corrections for dipol
 direction  3 min pos     2,
 dipolmoment           0.000000      0.000000      0.022739 electrons x Angstroem
 Tr[quadrupol]      -949.510169

 energy correction for charged system         0.000000 eV
 dipol+quadrupol energy correction            0.000057 eV
 added-field ion interaction          0.000000 eV  (added to PSCEN)

 
  *************** adding dipol energy to TOTEN NOW **************** 
    CHARGE:  cpu time    0.3485: real time    0.3485
    FORLOC:  cpu time    0.0025: real time    0.0025
    FORNL :  cpu time    5.0083: real time    5.0088
    STRESS:  cpu time    8.0676: real time    8.0685
    FORCOR:  cpu time    0.0190: real time    0.0190
    FORHAR:  cpu time    0.0058: real time    0.0058
    MIXING:  cpu time    0.0016: real time    0.0016
    OFIELD:  cpu time    0.0001: real time    0.0001

  FORCE on cell =-STRESS in cart. coord.  units (eV):
  Direction    XX          YY          ZZ          XY          YZ          ZX
  --------------------------------------------------------------------------------------
  Alpha Z   303.52544   303.52544   303.52544
  Ewald  106884.77041106884.81563************    -0.03917     0.06566     0.11373
  Hartree109202.61961109202.62872************    -0.00788     0.04251     0.07364
  E(xc)    -709.83099  -709.82767  -714.53157    -0.00287     0.00509     0.00882
  Local  ************************221427.59768     0.02365     0.02138     0.03703
  n-local    55.52848    62.36404    41.60377     2.06697     0.35135    -0.29536
  augment   834.14025   834.17273   862.80026    -0.02813    -0.03843    -0.06578
  Kinetic  2280.06853  2284.60582  2353.53706     1.25353     0.36861    -0.38659
  Fock        0.00000     0.00000     0.00000     0.00000     0.00000     0.00000
  -------------------------------------------------------------------------------------
  Total     -11.21880   -11.18836    -1.24634    -0.02636    -0.01819    -0.03150
  in kB     -21.81034   -21.75116    -2.42299    -0.05126    -0.03536    -0.06125
  external pressure =      -15.33 kB  Pullay stress =        0.00 kB


 VOLUME and BASIS-vectors are now :
 -----------------------------------------------------------------------------
  energy-cutoff  :      350.00
  volume of cell :      824.13
      direct lattice vectors                 reciprocal lattice vectors
     5.557859300  0.000000000  0.000000000     0.179925390 -0.103879972  0.000000000
     2.778929650  4.813247345  0.000000000     0.000000000  0.207759944  0.000000000
     0.000000000  0.000000000 30.806959674     0.000000000  0.000000000  0.032460198

  length of vectors
     5.557859300  5.557859300 30.806959674     0.207759944  0.207759944  0.032460198


 FORCES acting on ions
    electron-ion (+dipol)            ewald-force                    non-local-force                 convergence-correction
 -----------------------------------------------------------------------------------------------
   0.283E+00 0.163E+00 0.309E+04   -.271E+00 -.157E+00 -.309E+04   -.894E-02 -.516E-02 -.376E+00   0.444E-02 0.257E-02 -.103E+00
   -.248E+00 0.202E+00 0.281E+04   0.247E+00 -.142E+00 -.281E+04   -.583E-02 -.605E-01 -.104E+01   -.389E-02 0.463E-02 -.921E-01
   0.511E-01 -.315E+00 0.281E+04   -.945E-12 0.285E+00 -.281E+04   -.553E-01 0.252E-01 -.104E+01   0.207E-02 -.568E-02 -.921E-01
   -.445E-01 -.257E-01 0.281E+04   -.939E-12 -.601E-12 -.281E+04   0.472E-01 0.272E-01 -.126E+01   -.186E-02 -.107E-02 -.102E+00
   -.476E+01 -.275E+01 0.894E+03   0.489E+01 0.282E+01 -.893E+03   0.576E-02 0.333E-02 -.280E+00   -.493E-02 -.285E-02 0.292E+00
   0.476E+01 0.278E+01 0.889E+03   -.489E+01 -.297E+01 -.888E+03   0.664E-02 0.106E+00 -.360E+00   0.503E-02 0.225E-01 0.271E+00
   0.479E+01 0.274E+01 0.889E+03   -.501E+01 -.275E+01 -.888E+03   0.953E-01 -.473E-01 -.360E+00   0.220E-01 -.691E-02 0.271E+00
   -.478E+01 -.276E+01 0.894E+03   0.501E+01 0.290E+01 -.893E+03   -.102E+00 -.590E-01 -.272E+00   -.218E-01 -.126E-01 0.277E+00
   0.134E-01 -.299E+00 -.975E+03   -.289E-11 0.285E+00 0.974E+03   -.345E-01 0.310E-01 0.392E+00   -.635E-02 0.342E-02 0.561E+00
   -.187E-01 -.108E-01 -.974E+03   -.297E-11 -.176E-11 0.974E+03   0.249E-01 0.144E-01 0.287E+00   0.627E-02 0.362E-02 0.560E+00
   -.252E+00 0.161E+00 -.975E+03   0.247E+00 -.142E+00 0.974E+03   0.961E-02 -.454E-01 0.392E+00   -.211E-03 -.721E-02 0.561E+00
   0.453E+01 0.262E+01 -.282E+04   -.479E+01 -.277E+01 0.282E+04   0.101E+00 0.582E-01 0.880E+00   0.163E-01 0.939E-02 0.230E+00
   -.454E+01 0.260E+01 -.282E+04   0.479E+01 -.277E+01 0.282E+04   -.932E-01 0.438E-01 0.922E+00   -.162E-01 0.665E-02 0.234E+00
   -.167E-01 -.524E+01 -.282E+04   0.121E-11 0.553E+01 0.282E+04   -.864E-02 -.103E+00 0.922E+00   -.236E-02 -.174E-01 0.234E+00
   0.177E-01 0.102E-01 -.282E+04   0.760E-12 0.424E-12 0.282E+04   0.130E-01 0.753E-02 0.926E+00   0.246E-02 0.142E-02 0.218E+00
   0.232E+00 0.134E+00 -.877E+03   -.222E+00 -.128E+00 0.876E+03   -.195E-01 -.112E-01 0.139E+00   0.957E-04 0.553E-04 0.493E+00
 -----------------------------------------------------------------------------------------------
   0.240E-01 0.139E-01 -.369E+01   -.536E-14 0.139E-15 -.171E-11   -.249E-01 -.144E-01 -.128E+00   0.101E-02 0.585E-03 0.381E+01
 
 
 POSITION                                       TOTAL-FORCE (eV/Angst)
 -----------------------------------------------------------------------------------
      0.00000      0.00000     12.00000         0.007294      0.004211     -1.161092
      2.77893      0.00000     12.00000        -0.010716      0.003650      0.033314
      1.38946      2.40662     12.00000        -0.002197     -0.011105      0.033314
      4.16839      2.40662     12.00000         0.000813      0.000469      0.147381
      1.38946      0.80221     14.31554         0.132910      0.076736      0.163874
      4.16839      0.80221     14.31554        -0.111675     -0.059838      0.481170
      2.77893      3.20883     14.31554        -0.107659     -0.066794      0.481170
      5.55786      3.20883     14.31554         0.110345      0.063708      0.223836
      5.55786      1.60442     16.61120        -0.027466      0.020102      0.018540
      2.77893      1.60442     16.61120         0.012471      0.007200      0.277774
      4.16839      4.01104     16.61120         0.003676     -0.033837      0.018540
      0.00000      0.00000     18.94198        -0.144966     -0.083696     -0.241962
      2.77893      0.00000     18.94198         0.140966     -0.113394     -0.217592
      1.38946      2.40662     18.94198        -0.027719      0.178777     -0.217592
      4.16839      2.40662     18.94198         0.033223      0.019181      0.048366
      6.94732      4.01104     16.61120        -0.009302     -0.005371     -0.089040
 -----------------------------------------------------------------------------------
    total drift:                                0.000107      0.000062     -0.008688


--------------------------------------------------------------------------------------------------------



  FREE ENERGIE OF THE ION-ELECTRON SYSTEM (eV)
  ---------------------------------------------------
  free  energy   TOTEN  =       -92.46678940 eV

  energy  without entropy=      -92.44449228  energy(sigma->0) =      -92.45935702
 


--------------------------------------------------------------------------------------------------------


    POTLOK:  cpu time    0.0202: real time    0.0202


--------------------------------------------------------------------------------------------------------


     LOOP+:  cpu time  300.2531: real time  300.3820
    4ORBIT:  cpu time    0.0000: real time    0.0000

 total amount of memory used by VASP MPI-rank0   362189. kBytes
=======================================================================

   base      :      30000. kBytes
   nonl-proj :     280273. kBytes
   fftplans  :       2015. kBytes
   grid      :       7641. kBytes
   one-center:        248. kBytes
   wavefun   :      42012. kBytes
 
  
  
 General timing and accounting informations for this job:
 ========================================================
  
                  Total CPU time used (sec):      305.937
                            User time (sec):      304.342
                          System time (sec):        1.595
                         Elapsed time (sec):      306.296
  
                   Maximum memory used (kb):      405292.
                   Average memory used (kb):           0.
  
                          Minor page faults:        80276
                          Major page faults:           33
                 Voluntary context switches:          803
