  16  16   0   0
  0.5150799E+02  0.5557859E-09  0.5557859E-09  0.3080696E-08  0.5000000E-15
  1.000000000000000E-004
  CAR 
 unknown system                          
      6.49172191    -12.24353258  301     -0.85284132      1.00000000
    -12.244  0.0000E+00  0.0000E+00
    -12.181  0.0000E+00  0.0000E+00
    -12.119  0.0000E+00  0.0000E+00
    -12.056  0.0000E+00  0.0000E+00
    -11.994  0.0000E+00  0.0000E+00
    -11.931  0.0000E+00  0.0000E+00
    -11.869 -0.4786E-28 -0.2989E-29
    -11.806 -0.6661E-26 -0.4190E-27
    -11.744 -0.7632E-24 -0.4808E-25
    -11.681 -0.7182E-22 -0.4533E-23
    -11.619 -0.5550E-20 -0.3511E-21
    -11.557 -0.3521E-18 -0.2234E-19
    -11.494 -0.1834E-16 -0.1168E-17
    -11.432 -0.7839E-15 -0.5012E-16
    -11.369 -0.2660E-13 -0.1711E-14
    -11.307 -0.7628E-12 -0.4935E-13
    -11.244 -0.1790E-10 -0.1167E-11
    -11.182 -0.3437E-09 -0.2263E-10
    -11.119 -0.5399E-08 -0.3598E-09
    -11.057 -0.6926E-07 -0.4685E-08
    -10.995 -0.7245E-06 -0.4993E-07
    -10.932 -0.6167E-05 -0.4351E-06
    -10.870 -0.4259E-04 -0.3095E-05
    -10.807 -0.2375E-03 -0.1793E-04
    -10.745 -0.1063E-02 -0.8428E-04
    -10.682 -0.3769E-02 -0.3197E-03
    -10.620 -0.1039E-01 -0.9683E-03
    -10.557 -0.2127E-01 -0.2296E-02
    -10.495 -0.2843E-01 -0.4072E-02
    -10.432 -0.9211E-02 -0.4647E-02
    -10.370  0.6685E-01 -0.4718E-03
    -10.308  0.2132E+00  0.1285E-01
    -10.245  0.4073E+00  0.3828E-01
    -10.183  0.6049E+00  0.7606E-01
    -10.120  0.7717E+00  0.1243E+00
    -10.058  0.8888E+00  0.1798E+00
     -9.995  0.9377E+00  0.2383E+00
     -9.933  0.9085E+00  0.2951E+00
     -9.870  0.8256E+00  0.3466E+00
     -9.808  0.7553E+00  0.3938E+00
     -9.745  0.7718E+00  0.4420E+00
     -9.683  0.8928E+00  0.4977E+00
     -9.621  0.1039E+01  0.5626E+00
     -9.558  0.1097E+01  0.6312E+00
     -9.496  0.1029E+01  0.6954E+00
     -9.433  0.9036E+00  0.7519E+00
     -9.371  0.8007E+00  0.8019E+00
     -9.308  0.7483E+00  0.8486E+00
     -9.246  0.7542E+00  0.8957E+00
     -9.183  0.8503E+00  0.9488E+00
     -9.121  0.1053E+01  0.1015E+01
     -9.059  0.1304E+01  0.1096E+01
     -8.996  0.1506E+01  0.1190E+01
     -8.934  0.1621E+01  0.1291E+01
     -8.871  0.1693E+01  0.1397E+01
     -8.809  0.1764E+01  0.1507E+01
     -8.746  0.1815E+01  0.1621E+01
     -8.684  0.1814E+01  0.1734E+01
     -8.621  0.1795E+01  0.1846E+01
     -8.559  0.1859E+01  0.1962E+01
     -8.496  0.2064E+01  0.2091E+01
     -8.434  0.2351E+01  0.2238E+01
     -8.372  0.2576E+01  0.2399E+01
     -8.309  0.2626E+01  0.2563E+01
     -8.247  0.2511E+01  0.2719E+01
     -8.184  0.2334E+01  0.2865E+01
     -8.122  0.2174E+01  0.3001E+01
     -8.059  0.2045E+01  0.3129E+01
     -7.997  0.2033E+01  0.3256E+01
     -7.934  0.2375E+01  0.3404E+01
     -7.872  0.3240E+01  0.3606E+01
     -7.810  0.4443E+01  0.3884E+01
     -7.747  0.5579E+01  0.4232E+01
     -7.685  0.6485E+01  0.4637E+01
     -7.622  0.7358E+01  0.5097E+01
     -7.560  0.8381E+01  0.5620E+01
     -7.497  0.9496E+01  0.6213E+01
     -7.435  0.1063E+02  0.6877E+01
     -7.372  0.1185E+02  0.7617E+01
     -7.310  0.1307E+02  0.8433E+01
     -7.247  0.1395E+02  0.9304E+01
     -7.185  0.1410E+02  0.1018E+02
     -7.123  0.1362E+02  0.1104E+02
     -7.060  0.1307E+02  0.1185E+02
     -6.998  0.1304E+02  0.1267E+02
     -6.935  0.1378E+02  0.1353E+02
     -6.873  0.1509E+02  0.1447E+02
     -6.810  0.1664E+02  0.1551E+02
     -6.748  0.1828E+02  0.1665E+02
     -6.685  0.2005E+02  0.1790E+02
     -6.623  0.2182E+02  0.1926E+02
     -6.561  0.2320E+02  0.2071E+02
     -6.498  0.2386E+02  0.2220E+02
     -6.436  0.2386E+02  0.2369E+02
     -6.373  0.2350E+02  0.2516E+02
     -6.311  0.2301E+02  0.2660E+02
     -6.248  0.2226E+02  0.2799E+02
     -6.186  0.2096E+02  0.2930E+02
     -6.123  0.1901E+02  0.3049E+02
     -6.061  0.1669E+02  0.3153E+02
     -5.998  0.1444E+02  0.3243E+02
     -5.936  0.1271E+02  0.3322E+02
     -5.874  0.1189E+02  0.3397E+02
     -5.811  0.1228E+02  0.3473E+02
     -5.749  0.1393E+02  0.3560E+02
     -5.686  0.1653E+02  0.3663E+02
     -5.624  0.1929E+02  0.3784E+02
     -5.561  0.2129E+02  0.3917E+02
     -5.499  0.2186E+02  0.4053E+02
     -5.436  0.2115E+02  0.4186E+02
     -5.374  0.2008E+02  0.4311E+02
     -5.311  0.1972E+02  0.4434E+02
     -5.249  0.2045E+02  0.4562E+02
     -5.187  0.2170E+02  0.4697E+02
     -5.124  0.2246E+02  0.4838E+02
     -5.062  0.2210E+02  0.4976E+02
     -4.999  0.2074E+02  0.5105E+02
     -4.937  0.1926E+02  0.5225E+02
     -4.874  0.1865E+02  0.5342E+02
     -4.812  0.1937E+02  0.5463E+02
     -4.749  0.2117E+02  0.5595E+02
     -4.687  0.2334E+02  0.5741E+02
     -4.625  0.2520E+02  0.5898E+02
     -4.562  0.2635E+02  0.6063E+02
     -4.500  0.2683E+02  0.6230E+02
     -4.437  0.2699E+02  0.6399E+02
     -4.375  0.2729E+02  0.6569E+02
     -4.312  0.2807E+02  0.6744E+02
     -4.250  0.2929E+02  0.6927E+02
     -4.187  0.3049E+02  0.7118E+02
     -4.125  0.3108E+02  0.7312E+02
     -4.062  0.3092E+02  0.7505E+02
     -4.000  0.3067E+02  0.7697E+02
     -3.938  0.3125E+02  0.7892E+02
     -3.875  0.3290E+02  0.8097E+02
     -3.813  0.3483E+02  0.8315E+02
     -3.750  0.3570E+02  0.8538E+02
     -3.688  0.3471E+02  0.8754E+02
     -3.625  0.3219E+02  0.8955E+02
     -3.563  0.2929E+02  0.9138E+02
     -3.500  0.2698E+02  0.9307E+02
     -3.438  0.2528E+02  0.9465E+02
     -3.376  0.2345E+02  0.9611E+02
     -3.313  0.2092E+02  0.9742E+02
     -3.251  0.1804E+02  0.9855E+02
     -3.188  0.1607E+02  0.9955E+02
     -3.126  0.1626E+02  0.1006E+03
     -3.063  0.1897E+02  0.1017E+03
     -3.001  0.2328E+02  0.1032E+03
     -2.938  0.2733E+02  0.1049E+03
     -2.876  0.2939E+02  0.1067E+03
     -2.813  0.2893E+02  0.1086E+03
     -2.751  0.2682E+02  0.1102E+03
     -2.689  0.2454E+02  0.1118E+03
     -2.626  0.2307E+02  0.1132E+03
     -2.564  0.2250E+02  0.1146E+03
     -2.501  0.2234E+02  0.1160E+03
     -2.439  0.2220E+02  0.1174E+03
     -2.376  0.2204E+02  0.1188E+03
     -2.314  0.2195E+02  0.1201E+03
     -2.251  0.2193E+02  0.1215E+03
     -2.189  0.2213E+02  0.1229E+03
     -2.126  0.2297E+02  0.1243E+03
     -2.064  0.2487E+02  0.1259E+03
     -2.002  0.2759E+02  0.1276E+03
     -1.939  0.3012E+02  0.1295E+03
     -1.877  0.3123E+02  0.1314E+03
     -1.814  0.3043E+02  0.1333E+03
     -1.752  0.2842E+02  0.1351E+03
     -1.689  0.2632E+02  0.1367E+03
     -1.627  0.2472E+02  0.1383E+03
     -1.564  0.2347E+02  0.1398E+03
     -1.502  0.2237E+02  0.1412E+03
     -1.440  0.2167E+02  0.1425E+03
     -1.377  0.2181E+02  0.1439E+03
     -1.315  0.2302E+02  0.1453E+03
     -1.252  0.2530E+02  0.1469E+03
     -1.190  0.2842E+02  0.1487E+03
     -1.127  0.3176E+02  0.1506E+03
     -1.065  0.3432E+02  0.1528E+03
     -1.002  0.3531E+02  0.1550E+03
     -0.940  0.3471E+02  0.1572E+03
     -0.877  0.3303E+02  0.1592E+03
     -0.815  0.3060E+02  0.1611E+03
     -0.753  0.2745E+02  0.1629E+03
     -0.690  0.2393E+02  0.1643E+03
     -0.628  0.2076E+02  0.1656E+03
     -0.565  0.1833E+02  0.1668E+03
     -0.503  0.1623E+02  0.1678E+03
     -0.440  0.1393E+02  0.1687E+03
     -0.378  0.1149E+02  0.1694E+03
     -0.315  0.9335E+01  0.1700E+03
     -0.253  0.7754E+01  0.1705E+03
     -0.191  0.6748E+01  0.1709E+03
     -0.128  0.6319E+01  0.1713E+03
     -0.066  0.6414E+01  0.1717E+03
     -0.003  0.6640E+01  0.1721E+03
      0.059  0.6423E+01  0.1725E+03
      0.122  0.5601E+01  0.1728E+03
      0.184  0.4661E+01  0.1731E+03
      0.247  0.4218E+01  0.1734E+03
      0.309  0.4367E+01  0.1737E+03
      0.372  0.4654E+01  0.1740E+03
      0.434  0.4637E+01  0.1742E+03
      0.496  0.4328E+01  0.1745E+03
      0.559  0.4093E+01  0.1748E+03
      0.621  0.4252E+01  0.1750E+03
      0.684  0.4841E+01  0.1753E+03
      0.746  0.5646E+01  0.1757E+03
      0.809  0.6314E+01  0.1761E+03
      0.871  0.6531E+01  0.1765E+03
      0.934  0.6237E+01  0.1769E+03
      0.996  0.5691E+01  0.1772E+03
      1.058  0.5209E+01  0.1776E+03
      1.121  0.4858E+01  0.1779E+03
      1.183  0.4484E+01  0.1781E+03
      1.246  0.4021E+01  0.1784E+03
      1.308  0.3663E+01  0.1786E+03
      1.371  0.3694E+01  0.1789E+03
      1.433  0.4186E+01  0.1791E+03
      1.496  0.4906E+01  0.1794E+03
      1.558  0.5555E+01  0.1798E+03
      1.621  0.6016E+01  0.1801E+03
      1.683  0.6287E+01  0.1805E+03
      1.745  0.6247E+01  0.1809E+03
      1.808  0.5726E+01  0.1813E+03
      1.870  0.4835E+01  0.1816E+03
      1.933  0.4073E+01  0.1818E+03
      1.995  0.3977E+01  0.1821E+03
      2.058  0.4648E+01  0.1824E+03
      2.120  0.5610E+01  0.1827E+03
      2.183  0.6176E+01  0.1831E+03
      2.245  0.6014E+01  0.1835E+03
      2.308  0.5409E+01  0.1838E+03
      2.370  0.4920E+01  0.1841E+03
      2.432  0.4766E+01  0.1844E+03
      2.495  0.4629E+01  0.1847E+03
      2.557  0.4124E+01  0.1850E+03
      2.620  0.3405E+01  0.1852E+03
      2.682  0.3142E+01  0.1854E+03
      2.745  0.3854E+01  0.1856E+03
      2.807  0.5308E+01  0.1860E+03
      2.870  0.6603E+01  0.1864E+03
      2.932  0.6870E+01  0.1868E+03
      2.994  0.5950E+01  0.1872E+03
      3.057  0.4467E+01  0.1875E+03
      3.119  0.3270E+01  0.1877E+03
      3.182  0.2849E+01  0.1878E+03
      3.244  0.3146E+01  0.1880E+03
      3.307  0.3741E+01  0.1883E+03
      3.369  0.4186E+01  0.1885E+03
      3.432  0.4282E+01  0.1888E+03
      3.494  0.4085E+01  0.1891E+03
      3.557  0.3688E+01  0.1893E+03
      3.619  0.3136E+01  0.1895E+03
      3.681  0.2636E+01  0.1896E+03
      3.744  0.2635E+01  0.1898E+03
      3.806  0.3409E+01  0.1900E+03
      3.869  0.4581E+01  0.1903E+03
      3.931  0.5283E+01  0.1906E+03
      3.994  0.4912E+01  0.1909E+03
      4.056  0.3669E+01  0.1912E+03
      4.119  0.2310E+01  0.1913E+03
      4.181  0.1471E+01  0.1914E+03
      4.243  0.1286E+01  0.1915E+03
      4.306  0.1503E+01  0.1916E+03
      4.368  0.1770E+01  0.1917E+03
      4.431  0.1822E+01  0.1918E+03
      4.493  0.1555E+01  0.1919E+03
      4.556  0.1057E+01  0.1920E+03
      4.618  0.5286E+00  0.1920E+03
      4.681  0.1471E+00  0.1920E+03
      4.743 -0.3445E-01  0.1920E+03
      4.806 -0.7211E-01  0.1920E+03
      4.868 -0.5058E-01  0.1920E+03
      4.930 -0.2388E-01  0.1920E+03
      4.993 -0.8483E-02  0.1920E+03
      5.055 -0.2357E-02  0.1920E+03
      5.118 -0.5216E-03  0.1920E+03
      5.180 -0.9282E-04  0.1920E+03
      5.243 -0.1336E-04  0.1920E+03
      5.305 -0.1561E-05  0.1920E+03
      5.368 -0.1485E-06  0.1920E+03
      5.430 -0.1153E-07  0.1920E+03
      5.493 -0.7307E-09  0.1920E+03
      5.555 -0.3789E-10  0.1920E+03
      5.617 -0.1608E-11  0.1920E+03
      5.680 -0.5578E-13  0.1920E+03
      5.742 -0.1778E-14  0.1920E+03
      5.805  0.0000E+00  0.1920E+03
      5.867  0.0000E+00  0.1920E+03
      5.930  0.0000E+00  0.1920E+03
      5.992  0.0000E+00  0.1920E+03
      6.055  0.0000E+00  0.1920E+03
      6.117  0.0000E+00  0.1920E+03
      6.179  0.0000E+00  0.1920E+03
      6.242  0.0000E+00  0.1920E+03
      6.304  0.0000E+00  0.1920E+03
      6.367  0.0000E+00  0.1920E+03
      6.429  0.0000E+00  0.1920E+03
      6.492  0.0000E+00  0.1920E+03
