   16   16    1    1
  0.5150799E+02  0.5557859E-09  0.5557859E-09  0.3080696E-08  0.5000000E-15
  1.000000000000000E-004
  CAR 
 unknown system                          
    160     20     96
 
  0.6250000E-01  0.6250000E-01  0.0000000E+00  0.3125000E-01
    1      -10.243533   1.000000
    2       -8.931377   1.000000
    3       -7.830735   1.000000
    4       -7.786067   1.000000
    5       -7.574178   1.000000
    6       -7.557460   1.000000
    7       -7.499377   1.000000
    8       -7.431125   1.000000
    9       -7.422714   1.000000
   10       -7.310810   1.000000
   11       -6.958316   1.000000
   12       -6.957792   1.000000
   13       -6.902438   1.000000
   14       -6.652768   1.000000
   15       -6.631752   1.000000
   16       -6.623965   1.000000
   17       -6.524791   1.000000
   18       -6.495701   1.000000
   19       -6.487453   1.000000
   20       -5.746910   1.000000
   21       -5.745636   1.000000
   22       -5.688217   1.000000
   23       -4.999627   1.000000
   24       -4.836765   1.000000
   25       -4.836158   1.000000
   26       -4.752194   1.000000
   27       -4.720308   1.000000
   28       -4.713371   1.000000
   29       -4.634133   1.000000
   30       -4.551592   1.000000
   31       -4.476085   1.000000
   32       -4.470073   1.000000
   33       -4.334799   1.000000
   34       -4.304698   1.000000
   35       -4.149052   1.000000
   36       -4.145085   1.000000
   37       -3.979602   1.000000
   38       -3.827107   1.000000
   39       -3.784674   1.000000
   40       -3.764424   1.000000
   41       -3.698719   1.000000
   42       -3.572190   1.000000
   43       -3.491124   1.000000
   44       -3.477155   1.000000
   45       -3.469684   1.000000
   46       -3.105641   1.000000
   47       -3.076858   1.000000
   48       -2.943124   1.000000
   49       -2.914293   1.000000
   50       -2.803587   1.000000
   51       -2.763724   1.000000
   52       -2.465460   1.000000
   53       -2.462127   1.000000
   54       -2.020951   1.000000
   55       -1.997670   1.000000
   56       -1.776779   1.000000
   57       -1.744082   1.000000
   58       -1.722708   1.000000
   59       -1.619318   1.000000
   60       -1.583591   1.000002
   61       -1.566315   1.000003
   62       -1.503136   1.000021
   63       -1.273668   1.005629
   64       -1.250756   1.008267
   65       -1.200203   1.016973
   66       -1.147216   1.028886
   67       -1.078921   1.033904
   68       -1.051466   1.024399
   69       -1.025754   1.004771
   70       -0.974837   0.924442
   71       -0.949990   0.862168
   72       -0.900662   0.696074
   73       -0.807608   0.313923
   74       -0.799077   0.281363
   75       -0.750717   0.124125
   76       -0.656982  -0.022843
   77       -0.640020  -0.030565
   78       -0.515919  -0.019223
   79       -0.400618  -0.003147
   80       -0.333852  -0.000750
   81       -0.292096  -0.000268
   82       -0.227728  -0.000045
   83       -0.101173  -0.000001
   84       -0.025669  -0.000000
   85        0.026304  -0.000000
   86        0.040352  -0.000000
   87        0.350985  -0.000000
   88        0.422117  -0.000000
   89        1.130131  -0.000000
   90        1.486467  -0.000000
   91        1.553068  -0.000000
   92        1.606072  -0.000000
   93        1.749548  -0.000000
   94        1.775982  -0.000000
   95        2.499079  -0.000000
   96        2.530727  -0.000000
 
  0.1875000E+00  0.6250000E-01  0.0000000E+00  0.6250000E-01
    1      -10.040064   1.000000
    2       -8.729916   1.000000
    3       -7.624166   1.000000
    4       -7.598349   1.000000
    5       -7.541771   1.000000
    6       -7.463860   1.000000
    7       -7.355720   1.000000
    8       -7.329266   1.000000
    9       -7.286280   1.000000
   10       -7.169163   1.000000
   11       -6.860209   1.000000
   12       -6.852925   1.000000
   13       -6.810209   1.000000
   14       -6.609425   1.000000
   15       -6.541194   1.000000
   16       -6.429744   1.000000
   17       -6.420738   1.000000
   18       -6.367884   1.000000
   19       -6.290960   1.000000
   20       -5.689178   1.000000
   21       -5.682559   1.000000
   22       -5.631392   1.000000
   23       -5.006798   1.000000
   24       -4.912711   1.000000
   25       -4.843495   1.000000
   26       -4.832688   1.000000
   27       -4.744887   1.000000
   28       -4.668402   1.000000
   29       -4.651533   1.000000
   30       -4.572926   1.000000
   31       -4.534585   1.000000
   32       -4.351278   1.000000
   33       -4.236943   1.000000
   34       -4.212088   1.000000
   35       -4.130225   1.000000
   36       -4.093058   1.000000
   37       -3.962183   1.000000
   38       -3.942851   1.000000
   39       -3.926681   1.000000
   40       -3.699640   1.000000
   41       -3.666389   1.000000
   42       -3.654603   1.000000
   43       -3.639595   1.000000
   44       -3.622515   1.000000
   45       -3.550853   1.000000
   46       -3.438651   1.000000
   47       -3.275546   1.000000
   48       -3.138181   1.000000
   49       -2.890446   1.000000
   50       -2.800177   1.000000
   51       -2.718678   1.000000
   52       -2.553697   1.000000
   53       -2.511024   1.000000
   54       -2.156147   1.000000
   55       -2.002256   1.000000
   56       -1.974477   1.000000
   57       -1.942811   1.000000
   58       -1.884370   1.000000
   59       -1.853269   1.000000
   60       -1.826495   1.000000
   61       -1.795884   1.000000
   62       -1.727611   1.000000
   63       -1.659375   1.000000
   64       -1.597616   1.000001
   65       -1.537407   1.000007
   66       -1.471043   1.000056
   67       -1.298382   1.003580
   68       -1.275199   1.005480
   69       -1.228523   1.011605
   70       -1.135702   1.031237
   71       -1.089725   1.035193
   72       -1.046681   1.021628
   73       -0.986702   0.948696
   74       -0.957944   0.883787
   75       -0.859451   0.527951
   76       -0.838786   0.440689
   77       -0.814507   0.341051
   78       -0.796988   0.273574
   79       -0.741873   0.101280
   80       -0.694655   0.012309
   81       -0.528945  -0.022167
   82       -0.448429  -0.007440
   83       -0.417008  -0.004296
   84       -0.278619  -0.000189
   85       -0.210497  -0.000027
   86        0.147402  -0.000000
   87        0.253999  -0.000000
   88        0.787999  -0.000000
   89        0.830407  -0.000000
   90        1.092902  -0.000000
   91        1.267035  -0.000000
   92        1.625042  -0.000000
   93        2.091128  -0.000000
   94        2.531840  -0.000000
   95        2.949283  -0.000000
   96        3.322016  -0.000000
 
  0.3125000E+00  0.6250000E-01  0.0000000E+00  0.6250000E-01
    1       -9.587708   1.000000
    2       -8.294665   1.000000
    3       -7.623540   1.000000
    4       -7.254718   1.000000
    5       -7.199371   1.000000
    6       -7.182199   1.000000
    7       -7.167575   1.000000
    8       -7.017094   1.000000
    9       -6.996159   1.000000
   10       -6.875991   1.000000
   11       -6.678344   1.000000
   12       -6.617976   1.000000
   13       -6.576122   1.000000
   14       -6.526512   1.000000
   15       -6.280971   1.000000
   16       -6.259742   1.000000
   17       -6.098065   1.000000
   18       -6.011671   1.000000
   19       -5.901139   1.000000
   20       -5.558236   1.000000
   21       -5.544172   1.000000
   22       -5.512741   1.000000
   23       -5.156438   1.000000
   24       -5.100185   1.000000
   25       -5.016925   1.000000
   26       -4.945907   1.000000
   27       -4.864087   1.000000
   28       -4.730669   1.000000
   29       -4.584620   1.000000
   30       -4.521386   1.000000
   31       -4.395976   1.000000
   32       -4.288094   1.000000
   33       -4.243165   1.000000
   34       -4.200450   1.000000
   35       -4.145381   1.000000
   36       -4.107373   1.000000
   37       -4.079771   1.000000
   38       -4.016180   1.000000
   39       -3.983014   1.000000
   40       -3.930073   1.000000
   41       -3.875102   1.000000
   42       -3.852667   1.000000
   43       -3.797467   1.000000
   44       -3.742656   1.000000
   45       -3.613805   1.000000
   46       -3.413551   1.000000
   47       -3.387313   1.000000
   48       -3.236448   1.000000
   49       -2.959636   1.000000
   50       -2.920921   1.000000
   51       -2.862452   1.000000
   52       -2.750725   1.000000
   53       -2.710717   1.000000
   54       -2.639063   1.000000
   55       -2.617331   1.000000
   56       -2.596007   1.000000
   57       -2.505878   1.000000
   58       -2.467649   1.000000
   59       -2.407158   1.000000
   60       -2.320865   1.000000
   61       -2.225186   1.000000
   62       -2.044714   1.000000
   63       -2.006246   1.000000
   64       -1.943656   1.000000
   65       -1.912600   1.000000
   66       -1.839251   1.000000
   67       -1.680673   1.000000
   68       -1.660085   1.000000
   69       -1.631604   1.000000
   70       -1.555553   1.000004
   71       -1.514912   1.000015
   72       -1.393539   1.000445
   73       -1.355692   1.001086
   74       -1.269886   1.006012
   75       -1.178883   1.021675
   76       -1.098722   1.035455
   77       -1.054076   1.025756
   78       -0.976139   0.927277
   79       -0.910348   0.732536
   80       -0.853047   0.500871
   81       -0.824719   0.382300
   82       -0.786997   0.237423
   83       -0.655165  -0.023879
   84       -0.590007  -0.034370
   85       -0.527496  -0.021835
   86        0.274992  -0.000000
   87        0.396880  -0.000000
   88        0.501876  -0.000000
   89        0.963534  -0.000000
   90        1.645464  -0.000000
   91        1.893051  -0.000000
   92        1.927206  -0.000000
   93        2.304637  -0.000000
   94        2.633120  -0.000000
   95        3.242103  -0.000000
   96        3.879919  -0.000000
 
  0.4375000E+00  0.6250000E-01  0.0000000E+00  0.6250000E-01
    1       -8.951570   1.000000
    2       -7.975440   1.000000
    3       -7.732343   1.000000
    4       -7.196043   1.000000
    5       -6.911228   1.000000
    6       -6.813772   1.000000
    7       -6.715578   1.000000
    8       -6.651947   1.000000
    9       -6.599719   1.000000
   10       -6.584466   1.000000
   11       -6.535983   1.000000
   12       -6.316507   1.000000
   13       -6.275403   1.000000
   14       -6.160328   1.000000
   15       -6.079757   1.000000
   16       -6.057437   1.000000
   17       -5.874379   1.000000
   18       -5.602163   1.000000
   19       -5.573456   1.000000
   20       -5.488403   1.000000
   21       -5.399754   1.000000
   22       -5.326959   1.000000
   23       -5.287915   1.000000
   24       -5.212584   1.000000
   25       -5.164239   1.000000
   26       -5.057164   1.000000
   27       -5.009493   1.000000
   28       -4.793422   1.000000
   29       -4.700095   1.000000
   30       -4.677278   1.000000
   31       -4.646780   1.000000
   32       -4.524772   1.000000
   33       -4.432528   1.000000
   34       -4.389579   1.000000
   35       -4.327548   1.000000
   36       -4.175003   1.000000
   37       -4.110226   1.000000
   38       -4.067287   1.000000
   39       -3.939618   1.000000
   40       -3.879679   1.000000
   41       -3.814658   1.000000
   42       -3.775589   1.000000
   43       -3.718200   1.000000
   44       -3.692252   1.000000
   45       -3.639206   1.000000
   46       -3.596802   1.000000
   47       -3.494581   1.000000
   48       -3.426417   1.000000
   49       -3.410418   1.000000
   50       -3.359529   1.000000
   51       -3.302930   1.000000
   52       -3.232218   1.000000
   53       -3.188409   1.000000
   54       -3.081911   1.000000
   55       -2.947457   1.000000
   56       -2.934423   1.000000
   57       -2.866156   1.000000
   58       -2.773705   1.000000
   59       -2.707630   1.000000
   60       -2.499941   1.000000
   61       -2.441893   1.000000
   62       -2.386791   1.000000
   63       -2.359440   1.000000
   64       -2.322190   1.000000
   65       -2.246098   1.000000
   66       -2.141978   1.000000
   67       -2.100299   1.000000
   68       -1.965317   1.000000
   69       -1.930797   1.000000
   70       -1.921322   1.000000
   71       -1.891306   1.000000
   72       -1.824858   1.000000
   73       -1.556777   1.000004
   74       -1.463535   1.000069
   75       -1.366283   1.000853
   76       -1.292618   1.003992
   77       -1.174506   1.022681
   78       -1.108549   1.035044
   79       -1.015691   0.993603
   80       -0.895307   0.675272
   81       -0.845314   0.468175
   82       -0.808721   0.318256
   83       -0.736110   0.087455
   84       -0.606846  -0.035454
   85       -0.536136  -0.023828
   86       -0.245424  -0.000076
   87        0.631686  -0.000000
   88        1.026767  -0.000000
   89        1.116053  -0.000000
   90        1.724533  -0.000000
   91        1.942715  -0.000000
   92        2.109461  -0.000000
   93        2.482349  -0.000000
   94        3.015811  -0.000000
   95        3.585305  -0.000000
   96        3.972614  -0.000000
 
 -0.4375000E+00  0.6250000E-01  0.0000000E+00  0.6250000E-01
    1       -8.606166   1.000000
    2       -8.260035   1.000000
    3       -7.482819   1.000000
    4       -7.291630   1.000000
    5       -6.830911   1.000000
    6       -6.734533   1.000000
    7       -6.604197   1.000000
    8       -6.577832   1.000000
    9       -6.482881   1.000000
   10       -6.419910   1.000000
   11       -6.393374   1.000000
   12       -6.256432   1.000000
   13       -6.243187   1.000000
   14       -6.092563   1.000000
   15       -5.935677   1.000000
   16       -5.902734   1.000000
   17       -5.765264   1.000000
   18       -5.721145   1.000000
   19       -5.589478   1.000000
   20       -5.502938   1.000000
   21       -5.397019   1.000000
   22       -5.319876   1.000000
   23       -5.216517   1.000000
   24       -5.164106   1.000000
   25       -5.133554   1.000000
   26       -5.081657   1.000000
   27       -5.045869   1.000000
   28       -4.941331   1.000000
   29       -4.760640   1.000000
   30       -4.665148   1.000000
   31       -4.635291   1.000000
   32       -4.589840   1.000000
   33       -4.494717   1.000000
   34       -4.438545   1.000000
   35       -4.311157   1.000000
   36       -4.185849   1.000000
   37       -4.108935   1.000000
   38       -4.005375   1.000000
   39       -3.952333   1.000000
   40       -3.914103   1.000000
   41       -3.871070   1.000000
   42       -3.804957   1.000000
   43       -3.780658   1.000000
   44       -3.735588   1.000000
   45       -3.696113   1.000000
   46       -3.666478   1.000000
   47       -3.621249   1.000000
   48       -3.583156   1.000000
   49       -3.550608   1.000000
   50       -3.472746   1.000000
   51       -3.426577   1.000000
   52       -3.361886   1.000000
   53       -3.313387   1.000000
   54       -3.047902   1.000000
   55       -3.027701   1.000000
   56       -2.927005   1.000000
   57       -2.875310   1.000000
   58       -2.793528   1.000000
   59       -2.709622   1.000000
   60       -2.616141   1.000000
   61       -2.498944   1.000000
   62       -2.427084   1.000000
   63       -2.390957   1.000000
   64       -2.325535   1.000000
   65       -2.261871   1.000000
   66       -2.217674   1.000000
   67       -2.153766   1.000000
   68       -2.082183   1.000000
   69       -2.020458   1.000000
   70       -2.006200   1.000000
   71       -1.936934   1.000000
   72       -1.889990   1.000000
   73       -1.820682   1.000000
   74       -1.631986   1.000000
   75       -1.384572   1.000554
   76       -1.350323   1.001225
   77       -1.180166   1.021382
   78       -1.114271   1.034525
   79       -0.996428   0.965979
   80       -0.866507   0.557677
   81       -0.821501   0.369177
   82       -0.798377   0.278746
   83       -0.647519  -0.027673
   84       -0.602477  -0.035349
   85       -0.538272  -0.024323
   86       -0.442714  -0.006765
   87        0.657627  -0.000000
   88        1.144650  -0.000000
   89        1.336078  -0.000000
   90        1.638131  -0.000000
   91        1.736297  -0.000000
   92        2.144698  -0.000000
   93        2.514461  -0.000000
   94        3.570319  -0.000000
   95        3.629577  -0.000000
   96        3.985447  -0.000000
 
 -0.3125000E+00  0.6250000E-01  0.0000000E+00  0.6250000E-01
    1       -9.286148   1.000000
    2       -8.021083   1.000000
    3       -7.753462   1.000000
    4       -7.184654   1.000000
    5       -7.048812   1.000000
    6       -6.980774   1.000000
    7       -6.899462   1.000000
    8       -6.856926   1.000000
    9       -6.793998   1.000000
   10       -6.723926   1.000000
   11       -6.622646   1.000000
   12       -6.453543   1.000000
   13       -6.428527   1.000000
   14       -6.359806   1.000000
   15       -6.169877   1.000000
   16       -6.155025   1.000000
   17       -5.959910   1.000000
   18       -5.785961   1.000000
   19       -5.686721   1.000000
   20       -5.481198   1.000000
   21       -5.454947   1.000000
   22       -5.419747   1.000000
   23       -5.279924   1.000000
   24       -5.195830   1.000000
   25       -5.107449   1.000000
   26       -5.010768   1.000000
   27       -4.939859   1.000000
   28       -4.720600   1.000000
   29       -4.623532   1.000000
   30       -4.590761   1.000000
   31       -4.501339   1.000000
   32       -4.362093   1.000000
   33       -4.319546   1.000000
   34       -4.286158   1.000000
   35       -4.248762   1.000000
   36       -4.194735   1.000000
   37       -4.149782   1.000000
   38       -4.066710   1.000000
   39       -3.991151   1.000000
   40       -3.932365   1.000000
   41       -3.832356   1.000000
   42       -3.819206   1.000000
   43       -3.745863   1.000000
   44       -3.705059   1.000000
   45       -3.641777   1.000000
   46       -3.535651   1.000000
   47       -3.313376   1.000000
   48       -3.211192   1.000000
   49       -3.121766   1.000000
   50       -3.083625   1.000000
   51       -3.055067   1.000000
   52       -2.998863   1.000000
   53       -2.949319   1.000000
   54       -2.929448   1.000000
   55       -2.888818   1.000000
   56       -2.815910   1.000000
   57       -2.773669   1.000000
   58       -2.737637   1.000000
   59       -2.624663   1.000000
   60       -2.575050   1.000000
   61       -2.315240   1.000000
   62       -2.213012   1.000000
   63       -2.181487   1.000000
   64       -2.144734   1.000000
   65       -2.077740   1.000000
   66       -2.041645   1.000000
   67       -1.954282   1.000000
   68       -1.891102   1.000000
   69       -1.794956   1.000000
   70       -1.760085   1.000000
   71       -1.714593   1.000000
   72       -1.614747   1.000000
   73       -1.413793   1.000267
   74       -1.353280   1.001147
   75       -1.222585   1.012630
   76       -1.164859   1.024913
   77       -1.110821   1.034860
   78       -1.079473   1.033998
   79       -1.032063   1.010717
   80       -0.958749   0.885889
   81       -0.847526   0.477517
   82       -0.811304   0.328373
   83       -0.752372   0.128616
   84       -0.603216  -0.035376
   85       -0.534043  -0.023344
   86       -0.007352  -0.000000
   87        0.578750  -0.000000
   88        0.712784  -0.000000
   89        1.052099  -0.000000
   90        1.698398  -0.000000
   91        2.036263  -0.000000
   92        2.264732  -0.000000
   93        2.408975  -0.000000
   94        2.463874  -0.000000
   95        3.469586  -0.000000
   96        3.942138  -0.000000
 
 -0.1875000E+00  0.6250000E-01  0.0000000E+00  0.6250000E-01
    1       -9.842192   1.000000
    2       -8.536933   1.000000
    3       -7.561033   1.000000
    4       -7.434008   1.000000
    5       -7.418190   1.000000
    6       -7.351026   1.000000
    7       -7.270933   1.000000
    8       -7.190858   1.000000
    9       -7.158591   1.000000
   10       -7.032636   1.000000
   11       -6.767404   1.000000
   12       -6.748704   1.000000
   13       -6.717475   1.000000
   14       -6.586894   1.000000
   15       -6.420242   1.000000
   16       -6.348344   1.000000
   17       -6.269258   1.000000
   18       -6.212921   1.000000
   19       -6.112971   1.000000
   20       -5.633728   1.000000
   21       -5.621685   1.000000
   22       -5.578569   1.000000
   23       -5.056879   1.000000
   24       -4.985821   1.000000
   25       -4.936102   1.000000
   26       -4.872312   1.000000
   27       -4.804590   1.000000
   28       -4.702436   1.000000
   29       -4.604778   1.000000
   30       -4.550360   1.000000
   31       -4.475401   1.000000
   32       -4.265721   1.000000
   33       -4.211400   1.000000
   34       -4.164607   1.000000
   35       -4.126830   1.000000
   36       -4.041281   1.000000
   37       -4.021830   1.000000
   38       -4.005421   1.000000
   39       -3.955734   1.000000
   40       -3.867126   1.000000
   41       -3.796676   1.000000
   42       -3.768572   1.000000
   43       -3.728287   1.000000
   44       -3.619499   1.000000
   45       -3.526944   1.000000
   46       -3.470784   1.000000
   47       -3.410200   1.000000
   48       -3.259725   1.000000
   49       -2.906162   1.000000
   50       -2.842099   1.000000
   51       -2.773265   1.000000
   52       -2.622828   1.000000
   53       -2.559548   1.000000
   54       -2.360716   1.000000
   55       -2.301743   1.000000
   56       -2.256524   1.000000
   57       -2.207796   1.000000
   58       -2.111172   1.000000
   59       -2.073248   1.000000
   60       -2.043599   1.000000
   61       -1.957296   1.000000
   62       -1.893607   1.000000
   63       -1.861551   1.000000
   64       -1.777435   1.000000
   65       -1.722628   1.000000
   66       -1.629793   1.000000
   67       -1.501474   1.000022
   68       -1.447253   1.000109
   69       -1.404476   1.000338
   70       -1.318148   1.002426
   71       -1.304567   1.003178
   72       -1.216187   1.013797
   73       -1.167123   1.024389
   74       -1.137023   1.030983
   75       -1.057025   1.027164
   76       -1.004401   0.978449
   77       -0.963444   0.897813
   78       -0.916838   0.756035
   79       -0.824992   0.383416
   80       -0.810377   0.324733
   81       -0.687470   0.003397
   82       -0.573066  -0.031813
   83       -0.559319  -0.029069
   84       -0.511311  -0.018215
   85       -0.335400  -0.000777
   86        0.049142  -0.000000
   87        0.391963  -0.000000
   88        0.662999  -0.000000
   89        0.864198  -0.000000
   90        1.349123  -0.000000
   91        1.525373  -0.000000
   92        1.784470  -0.000000
   93        2.176780  -0.000000
   94        2.905415  -0.000000
   95        3.021505  -0.000000
   96        3.555414  -0.000000
 
 -0.6250000E-01  0.6250000E-01  0.0000000E+00  0.3125000E-01
    1      -10.175102   1.000000
    2       -8.863339   1.000000
    3       -7.760754   1.000000
    4       -7.722313   1.000000
    5       -7.553930   1.000000
    6       -7.527700   1.000000
    7       -7.453802   1.000000
    8       -7.396745   1.000000
    9       -7.375355   1.000000
   10       -7.264495   1.000000
   11       -6.925198   1.000000
   12       -6.923068   1.000000
   13       -6.871389   1.000000
   14       -6.626189   1.000000
   15       -6.617671   1.000000
   16       -6.552120   1.000000
   17       -6.482952   1.000000
   18       -6.460639   1.000000
   19       -6.419669   1.000000
   20       -5.727420   1.000000
   21       -5.724208   1.000000
   22       -5.668805   1.000000
   23       -4.998434   1.000000
   24       -4.859164   1.000000
   25       -4.831222   1.000000
   26       -4.784163   1.000000
   27       -4.705447   1.000000
   28       -4.694043   1.000000
   29       -4.627907   1.000000
   30       -4.607510   1.000000
   31       -4.503394   1.000000
   32       -4.432380   1.000000
   33       -4.298667   1.000000
   34       -4.256634   1.000000
   35       -4.142103   1.000000
   36       -4.129368   1.000000
   37       -3.973236   1.000000
   38       -3.866155   1.000000
   39       -3.833889   1.000000
   40       -3.739500   1.000000
   41       -3.650647   1.000000
   42       -3.595422   1.000000
   43       -3.558289   1.000000
   44       -3.542873   1.000000
   45       -3.520746   1.000000
   46       -3.256480   1.000000
   47       -3.119322   1.000000
   48       -3.058887   1.000000
   49       -2.871231   1.000000
   50       -2.802552   1.000000
   51       -2.718041   1.000000
   52       -2.499716   1.000000
   53       -2.479539   1.000000
   54       -2.044212   1.000000
   55       -1.959828   1.000000
   56       -1.843810   1.000000
   57       -1.788372   1.000000
   58       -1.780311   1.000000
   59       -1.729769   1.000000
   60       -1.646011   1.000000
   61       -1.644458   1.000000
   62       -1.612750   1.000001
   63       -1.438756   1.000138
   64       -1.369565   1.000791
   65       -1.307361   1.003009
   66       -1.251836   1.008125
   67       -1.203802   1.016227
   68       -1.136388   1.031106
   69       -1.121442   1.033633
   70       -1.020828   0.999570
   71       -0.985219   0.945857
   72       -0.922921   0.777315
   73       -0.888544   0.648435
   74       -0.813409   0.336692
   75       -0.761072   0.153334
   76       -0.717204   0.047973
   77       -0.622121  -0.034600
   78       -0.588240  -0.034161
   79       -0.558454  -0.028883
   80       -0.509732  -0.017875
   81       -0.448202  -0.007412
   82       -0.419378  -0.004488
   83       -0.247640  -0.000081
   84       -0.188464  -0.000014
   85        0.092724  -0.000000
   86        0.109443  -0.000000
   87        0.362996  -0.000000
   88        0.802065  -0.000000
   89        0.831492  -0.000000
   90        0.916779  -0.000000
   91        1.491540  -0.000000
   92        1.492803  -0.000000
   93        1.949772  -0.000000
   94        2.229310  -0.000000
   95        2.434626  -0.000000
   96        3.127384  -0.000000
 
  0.1875000E+00  0.1875000E+00  0.0000000E+00  0.3125000E-01
    1       -9.973575   1.000000
    2       -8.664811   1.000000
    3       -7.572798   1.000000
    4       -7.557995   1.000000
    5       -7.537517   1.000000
    6       -7.366894   1.000000
    7       -7.347811   1.000000
    8       -7.303480   1.000000
    9       -7.229990   1.000000
   10       -7.124934   1.000000
   11       -6.827497   1.000000
   12       -6.818993   1.000000
   13       -6.781060   1.000000
   14       -6.624272   1.000000
   15       -6.430449   1.000000
   16       -6.421437   1.000000
   17       -6.411762   1.000000
   18       -6.270049   1.000000
   19       -6.259368   1.000000
   20       -5.672144   1.000000
   21       -5.660410   1.000000
   22       -5.613693   1.000000
   23       -5.018115   1.000000
   24       -4.904493   1.000000
   25       -4.900245   1.000000
   26       -4.857906   1.000000
   27       -4.770394   1.000000
   28       -4.667048   1.000000
   29       -4.628001   1.000000
   30       -4.578650   1.000000
   31       -4.512391   1.000000
   32       -4.312767   1.000000
   33       -4.213802   1.000000
   34       -4.210350   1.000000
   35       -4.127482   1.000000
   36       -4.072509   1.000000
   37       -3.974778   1.000000
   38       -3.955614   1.000000
   39       -3.951112   1.000000
   40       -3.765764   1.000000
   41       -3.698122   1.000000
   42       -3.687103   1.000000
   43       -3.671716   1.000000
   44       -3.615199   1.000000
   45       -3.507473   1.000000
   46       -3.457613   1.000000
   47       -3.426919   1.000000
   48       -3.119884   1.000000
   49       -2.930421   1.000000
   50       -2.796065   1.000000
   51       -2.736382   1.000000
   52       -2.563392   1.000000
   53       -2.544438   1.000000
   54       -2.192100   1.000000
   55       -2.088561   1.000000
   56       -2.047667   1.000000
   57       -2.029710   1.000000
   58       -2.003088   1.000000
   59       -1.931630   1.000000
   60       -1.907378   1.000000
   61       -1.886455   1.000000
   62       -1.764138   1.000000
   63       -1.694119   1.000000
   64       -1.675953   1.000000
   65       -1.578249   1.000002
   66       -1.505060   1.000020
   67       -1.381182   1.000601
   68       -1.327393   1.002006
   69       -1.277137   1.005295
   70       -1.206428   1.015694
   71       -1.172139   1.023228
   72       -1.109301   1.034986
   73       -1.053705   1.025570
   74       -1.019004   0.997516
   75       -0.983225   0.941954
   76       -0.925400   0.785767
   77       -0.843257   0.459496
   78       -0.813953   0.338849
   79       -0.779682   0.212201
   80       -0.744219   0.107148
   81       -0.546974  -0.026327
   82       -0.504256  -0.016718
   83       -0.502462  -0.016347
   84       -0.422537  -0.004754
   85       -0.326750  -0.000634
   86       -0.159064  -0.000005
   87        0.763769  -0.000000
   88        0.837193  -0.000000
   89        0.878449  -0.000000
   90        1.019003  -0.000000
   91        1.475322  -0.000000
   92        1.509547  -0.000000
   93        2.234147  -0.000000
   94        2.296920  -0.000000
   95        3.148760  -0.000000
   96        3.583122  -0.000000
 
  0.3125000E+00  0.1875000E+00  0.0000000E+00  0.6250000E-01
    1       -9.649312   1.000000
    2       -8.351382   1.000000
    3       -7.511558   1.000000
    4       -7.371267   1.000000
    5       -7.259388   1.000000
    6       -7.238511   1.000000
    7       -7.167452   1.000000
    8       -7.084610   1.000000
    9       -7.017584   1.000000
   10       -6.910424   1.000000
   11       -6.682332   1.000000
   12       -6.659472   1.000000
   13       -6.596565   1.000000
   14       -6.504008   1.000000
   15       -6.412452   1.000000
   16       -6.228273   1.000000
   17       -6.141823   1.000000
   18       -6.085965   1.000000
   19       -5.927311   1.000000
   20       -5.576678   1.000000