  17  17   0   0
  0.4847811E+02  0.5557859E-09  0.5557859E-09  0.3080696E-08  0.5000000E-15
  1.000000000000000E-004
  CAR 
 unknown system                          
      6.52963394    -12.04291692  301     -0.68540156      1.00000000
    -12.043  0.0000E+00  0.0000E+00
    -11.981  0.0000E+00  0.0000E+00
    -11.919  0.0000E+00  0.0000E+00
    -11.857  0.0000E+00  0.0000E+00
    -11.795  0.0000E+00  0.0000E+00
    -11.733  0.0000E+00  0.0000E+00
    -11.671 -0.3712E-28 -0.2298E-29
    -11.610 -0.5002E-26 -0.3120E-27
    -11.548 -0.5570E-24 -0.3480E-25
    -11.486 -0.5112E-22 -0.3199E-23
    -11.424 -0.3866E-20 -0.2425E-21
    -11.362 -0.2408E-18 -0.1515E-19
    -11.300 -0.1236E-16 -0.7802E-18
    -11.238 -0.5221E-15 -0.3310E-16
    -11.176 -0.1760E-13 -0.1123E-14
    -11.114 -0.5020E-12 -0.3220E-13
    -11.052 -0.1177E-10 -0.7608E-12
    -10.990 -0.2266E-09 -0.1479E-10
    -10.929 -0.3582E-08 -0.2365E-09
    -10.867 -0.4641E-07 -0.3109E-08
    -10.805 -0.4922E-06 -0.3358E-07
    -10.743 -0.4264E-05 -0.2976E-06
    -10.681 -0.3010E-04 -0.2161E-05
    -10.619 -0.1724E-03 -0.1283E-04
    -10.557 -0.7959E-03 -0.6211E-04
    -10.495 -0.2935E-02 -0.2438E-03
    -10.433 -0.8489E-02 -0.7693E-03
    -10.371 -0.1858E-01 -0.1920E-02
    -10.309 -0.2801E-01 -0.3654E-02
    -10.248 -0.1816E-01 -0.4778E-02
    -10.186  0.4059E-01 -0.2266E-02
    -10.124  0.1682E+00  0.8147E-02
    -10.062  0.3518E+00  0.2993E-01
    -10.000  0.5509E+00  0.6403E-01
     -9.938  0.7272E+00  0.1091E+00
     -9.876  0.8596E+00  0.1623E+00
     -9.814  0.9306E+00  0.2199E+00
     -9.752  0.9254E+00  0.2772E+00
     -9.690  0.8549E+00  0.3301E+00
     -9.628  0.7719E+00  0.3779E+00
     -9.567  0.7524E+00  0.4245E+00
     -9.505  0.8400E+00  0.4765E+00
     -9.443  0.9902E+00  0.5378E+00
     -9.381  0.1090E+01  0.6053E+00
     -9.319  0.1066E+01  0.6713E+00
     -9.257  0.9497E+00  0.7300E+00
     -9.195  0.8273E+00  0.7813E+00
     -9.133  0.7484E+00  0.8276E+00
     -9.071  0.7293E+00  0.8727E+00
     -9.009  0.8093E+00  0.9228E+00
     -8.947  0.1035E+01  0.9869E+00
     -8.886  0.1371E+01  0.1072E+01
     -8.824  0.1685E+01  0.1176E+01
     -8.762  0.1866E+01  0.1292E+01
     -8.700  0.1922E+01  0.1411E+01
     -8.638  0.1928E+01  0.1530E+01
     -8.576  0.1900E+01  0.1648E+01
     -8.514  0.1811E+01  0.1760E+01
     -8.452  0.1702E+01  0.1865E+01
     -8.390  0.1711E+01  0.1971E+01
     -8.328  0.1954E+01  0.2092E+01
     -8.266  0.2363E+01  0.2238E+01
     -8.205  0.2698E+01  0.2405E+01
     -8.143  0.2746E+01  0.2575E+01
     -8.081  0.2527E+01  0.2732E+01
     -8.019  0.2254E+01  0.2871E+01
     -7.957  0.2112E+01  0.3002E+01
     -7.895  0.2145E+01  0.3135E+01
     -7.833  0.2337E+01  0.3279E+01
     -7.771  0.2729E+01  0.3448E+01
     -7.709  0.3385E+01  0.3658E+01
     -7.647  0.4262E+01  0.3922E+01
     -7.586  0.5136E+01  0.4240E+01
     -7.524  0.5784E+01  0.4598E+01
     -7.462  0.6254E+01  0.4985E+01
     -7.400  0.6869E+01  0.5410E+01
     -7.338  0.7876E+01  0.5898E+01
     -7.276  0.9212E+01  0.6468E+01
     -7.214  0.1067E+02  0.7129E+01
     -7.152  0.1210E+02  0.7878E+01
     -7.090  0.1330E+02  0.8701E+01
     -7.028  0.1397E+02  0.9566E+01
     -6.966  0.1386E+02  0.1042E+02
     -6.905  0.1315E+02  0.1124E+02
     -6.843  0.1250E+02  0.1201E+02
     -6.781  0.1274E+02  0.1280E+02
     -6.719  0.1437E+02  0.1369E+02
     -6.657  0.1716E+02  0.1475E+02
     -6.595  0.2025E+02  0.1600E+02
     -6.533  0.2271E+02  0.1741E+02
     -6.471  0.2417E+02  0.1891E+02
     -6.409  0.2480E+02  0.2044E+02
     -6.347  0.2481E+02  0.2198E+02
     -6.285  0.2428E+02  0.2348E+02
     -6.224  0.2342E+02  0.2493E+02
     -6.162  0.2261E+02  0.2633E+02
     -6.100  0.2207E+02  0.2770E+02
     -6.038  0.2167E+02  0.2904E+02
     -5.976  0.2107E+02  0.3034E+02
     -5.914  0.2005E+02  0.3158E+02
     -5.852  0.1876E+02  0.3275E+02
     -5.790  0.1762E+02  0.3384E+02
     -5.728  0.1705E+02  0.3489E+02
     -5.666  0.1718E+02  0.3596E+02
     -5.604  0.1783E+02  0.3706E+02
     -5.543  0.1870E+02  0.3822E+02
     -5.481  0.1954E+02  0.3943E+02
     -5.419  0.2012E+02  0.4067E+02
     -5.357  0.2033E+02  0.4193E+02
     -5.295  0.2018E+02  0.4318E+02
     -5.233  0.1987E+02  0.4441E+02
     -5.171  0.1969E+02  0.4563E+02
     -5.109  0.1984E+02  0.4686E+02
     -5.047  0.2030E+02  0.4811E+02
     -4.985  0.2088E+02  0.4941E+02
     -4.923  0.2144E+02  0.5073E+02
     -4.862  0.2184E+02  0.5209E+02
     -4.800  0.2194E+02  0.5344E+02
     -4.738  0.2170E+02  0.5479E+02
     -4.676  0.2153E+02  0.5612E+02
     -4.614  0.2213E+02  0.5749E+02
     -4.552  0.2400E+02  0.5898E+02
     -4.490  0.2684E+02  0.6064E+02
     -4.428  0.2951E+02  0.6246E+02
     -4.366  0.3064E+02  0.6436E+02
     -4.304  0.2973E+02  0.6620E+02
     -4.242  0.2771E+02  0.6792E+02
     -4.181  0.2631E+02  0.6955E+02
     -4.119  0.2662E+02  0.7119E+02
     -4.057  0.2831E+02  0.7295E+02
     -3.995  0.3033E+02  0.7483E+02
     -3.933  0.3199E+02  0.7681E+02
     -3.871  0.3332E+02  0.7887E+02
     -3.809  0.3449E+02  0.8100E+02
     -3.747  0.3520E+02  0.8318E+02
     -3.685  0.3503E+02  0.8535E+02
     -3.623  0.3413E+02  0.8746E+02
     -3.561  0.3307E+02  0.8951E+02
     -3.500  0.3206E+02  0.9150E+02
     -3.438  0.3057E+02  0.9339E+02
     -3.376  0.2810E+02  0.9513E+02
     -3.314  0.2493E+02  0.9667E+02
     -3.252  0.2198E+02  0.9803E+02
     -3.190  0.1989E+02  0.9926E+02
     -3.128  0.1867E+02  0.1004E+03
     -3.066  0.1823E+02  0.1015E+03
     -3.004  0.1879E+02  0.1027E+03
     -2.942  0.2054E+02  0.1040E+03
     -2.880  0.2322E+02  0.1054E+03
     -2.819  0.2603E+02  0.1070E+03
     -2.757  0.2801E+02  0.1088E+03
     -2.695  0.2839E+02  0.1105E+03
     -2.633  0.2695E+02  0.1122E+03
     -2.571  0.2436E+02  0.1137E+03
     -2.509  0.2195E+02  0.1151E+03
     -2.447  0.2089E+02  0.1164E+03
     -2.385  0.2138E+02  0.1177E+03
     -2.323  0.2270E+02  0.1191E+03
     -2.261  0.2400E+02  0.1206E+03
     -2.199  0.2477E+02  0.1221E+03
     -2.138  0.2490E+02  0.1236E+03
     -2.076  0.2457E+02  0.1252E+03
     -2.014  0.2421E+02  0.1267E+03
     -1.952  0.2430E+02  0.1282E+03
     -1.890  0.2504E+02  0.1297E+03
     -1.828  0.2599E+02  0.1313E+03
     -1.766  0.2631E+02  0.1330E+03
     -1.704  0.2552E+02  0.1345E+03
     -1.642  0.2409E+02  0.1360E+03
     -1.580  0.2308E+02  0.1375E+03
     -1.518  0.2314E+02  0.1389E+03
     -1.457  0.2384E+02  0.1404E+03
     -1.395  0.2417E+02  0.1419E+03
     -1.333  0.2359E+02  0.1433E+03
     -1.271  0.2258E+02  0.1447E+03
     -1.209  0.2218E+02  0.1461E+03
     -1.147  0.2308E+02  0.1475E+03
     -1.085  0.2511E+02  0.1491E+03
     -1.023  0.2751E+02  0.1508E+03
     -0.961  0.2948E+02  0.1526E+03
     -0.899  0.3063E+02  0.1545E+03
     -0.837  0.3096E+02  0.1564E+03
     -0.776  0.3071E+02  0.1583E+03
     -0.714  0.3000E+02  0.1602E+03
     -0.652  0.2873E+02  0.1620E+03
     -0.590  0.2685E+02  0.1636E+03
     -0.528  0.2448E+02  0.1651E+03
     -0.466  0.2187E+02  0.1665E+03
     -0.404  0.1911E+02  0.1677E+03
     -0.342  0.1621E+02  0.1687E+03
     -0.280  0.1337E+02  0.1695E+03
     -0.218  0.1106E+02  0.1702E+03
     -0.156  0.9638E+01  0.1708E+03
     -0.095  0.8959E+01  0.1713E+03
     -0.033  0.8452E+01  0.1719E+03
      0.029  0.7592E+01  0.1723E+03
      0.091  0.6325E+01  0.1727E+03
      0.153  0.5039E+01  0.1730E+03
      0.215  0.4181E+01  0.1733E+03
      0.277  0.3896E+01  0.1735E+03
      0.339  0.4001E+01  0.1738E+03
      0.401  0.4241E+01  0.1740E+03
      0.463  0.4559E+01  0.1743E+03
      0.525  0.5076E+01  0.1746E+03
      0.586  0.5773E+01  0.1750E+03
      0.648  0.6334E+01  0.1754E+03
      0.710  0.6416E+01  0.1758E+03
      0.772  0.6032E+01  0.1762E+03
      0.834  0.5534E+01  0.1765E+03
      0.896  0.5257E+01  0.1768E+03
      0.958  0.5292E+01  0.1772E+03
      1.020  0.5551E+01  0.1775E+03
      1.082  0.5831E+01  0.1779E+03
      1.144  0.5844E+01  0.1782E+03
      1.206  0.5386E+01  0.1786E+03
      1.267  0.4591E+01  0.1788E+03
      1.329  0.3895E+01  0.1791E+03
      1.391  0.3686E+01  0.1793E+03
      1.453  0.4029E+01  0.1796E+03
      1.515  0.4680E+01  0.1798E+03
      1.577  0.5297E+01  0.1802E+03
      1.639  0.5662E+01  0.1805E+03
      1.701  0.5819E+01  0.1809E+03
      1.763  0.5985E+01  0.1813E+03
      1.825  0.6220E+01  0.1816E+03
      1.886  0.6256E+01  0.1820E+03
      1.948  0.5766E+01  0.1824E+03
      2.010  0.4794E+01  0.1827E+03
      2.072  0.3780E+01  0.1829E+03
      2.134  0.3153E+01  0.1831E+03
      2.196  0.3035E+01  0.1833E+03
      2.258  0.3345E+01  0.1835E+03
      2.320  0.3992E+01  0.1838E+03
      2.382  0.4914E+01  0.1841E+03
      2.444  0.5971E+01  0.1844E+03
      2.506  0.6889E+01  0.1849E+03
      2.567  0.7322E+01  0.1853E+03
      2.629  0.7033E+01  0.1857E+03
      2.691  0.6097E+01  0.1861E+03
      2.753  0.4919E+01  0.1864E+03
      2.815  0.4012E+01  0.1867E+03
      2.877  0.3668E+01  0.1869E+03
      2.939  0.3810E+01  0.1871E+03
      3.001  0.4126E+01  0.1874E+03
      3.063  0.4340E+01  0.1877E+03
      3.125  0.4396E+01  0.1879E+03
      3.187  0.4398E+01  0.1882E+03
      3.248  0.4393E+01  0.1885E+03
      3.310  0.4279E+01  0.1887E+03
      3.372  0.3963E+01  0.1890E+03
      3.434  0.3562E+01  0.1892E+03
      3.496  0.3336E+01  0.1894E+03
      3.558  0.3400E+01  0.1896E+03
      3.620  0.3596E+01  0.1898E+03
      3.682  0.3693E+01  0.1901E+03
      3.744  0.3611E+01  0.1903E+03
      3.806  0.3448E+01  0.1905E+03
      3.868  0.3311E+01  0.1907E+03
      3.929  0.3207E+01  0.1909E+03
      3.991  0.3085E+01  0.1911E+03
      4.053  0.2933E+01  0.1913E+03
      4.115  0.2761E+01  0.1915E+03
      4.177  0.2529E+01  0.1916E+03
      4.239  0.2153E+01  0.1918E+03
      4.301  0.1618E+01  0.1919E+03
      4.363  0.1037E+01  0.1919E+03
      4.425  0.5759E+00  0.1920E+03
      4.487  0.3171E+00  0.1920E+03
      4.549  0.2126E+00  0.1920E+03
      4.610  0.1598E+00  0.1920E+03
      4.672  0.9932E-01  0.1920E+03
      4.734  0.3669E-01  0.1920E+03
      4.796 -0.3478E-02  0.1920E+03
      4.858 -0.1573E-01  0.1920E+03
      4.920 -0.1241E-01  0.1920E+03
      4.982 -0.6209E-02  0.1920E+03
      5.044 -0.2278E-02  0.1920E+03
      5.106 -0.6444E-03  0.1920E+03
      5.168 -0.1439E-03  0.1920E+03
      5.230 -0.2571E-04  0.1920E+03
      5.291 -0.3705E-05  0.1920E+03
      5.353 -0.4331E-06  0.1920E+03
      5.415 -0.4121E-07  0.1920E+03
      5.477 -0.3202E-08  0.1920E+03
      5.539 -0.2035E-09  0.1920E+03
      5.601 -0.1060E-10  0.1920E+03
      5.663 -0.4527E-12  0.1920E+03
      5.725 -0.1584E-13  0.1920E+03
      5.787 -0.4483E-15  0.1920E+03
      5.849  0.0000E+00  0.1920E+03
      5.911  0.0000E+00  0.1920E+03
      5.972  0.0000E+00  0.1920E+03
      6.034  0.0000E+00  0.1920E+03
      6.096  0.0000E+00  0.1920E+03
      6.158  0.0000E+00  0.1920E+03
      6.220  0.0000E+00  0.1920E+03
      6.282  0.0000E+00  0.1920E+03
      6.344  0.0000E+00  0.1920E+03
      6.406  0.0000E+00  0.1920E+03
      6.468  0.0000E+00  0.1920E+03
      6.530  0.0000E+00  0.1920E+03
