   17   17    1    1
  0.4847811E+02  0.5557859E-09  0.5557859E-09  0.3080696E-08  0.5000000E-15
  1.000000000000000E-004
  CAR 
 unknown system                          
    161     52     96
 
  0.6250000E-01  0.6250000E-01  0.0000000E+00  0.1041667E-01
    1      -10.060869   1.000000
    2       -8.834332   1.000000
    3       -7.767500   1.000000
    4       -7.618673   1.000000
    5       -7.324870   1.000000
    6       -7.311731   1.000000
    7       -7.285355   1.000000
    8       -7.167042   1.000000
    9       -7.149431   1.000000
   10       -7.130559   1.000000
   11       -6.761845   1.000000
   12       -6.698028   1.000000
   13       -6.673705   1.000000
   14       -6.658988   1.000000
   15       -6.644634   1.000000
   16       -6.509517   1.000000
   17       -6.481203   1.000000
   18       -6.458912   1.000000
   19       -6.418463   1.000000
   20       -5.923353   1.000000
   21       -5.700439   1.000000
   22       -5.683061   1.000000
   23       -5.431388   1.000000
   24       -4.854973   1.000000
   25       -4.845194   1.000000
   26       -4.709992   1.000000
   27       -4.595801   1.000000
   28       -4.586354   1.000000
   29       -4.512572   1.000000
   30       -4.458716   1.000000
   31       -4.305693   1.000000
   32       -4.201244   1.000000
   33       -4.149574   1.000000
   34       -4.042379   1.000000
   35       -4.034066   1.000000
   36       -3.913385   1.000000
   37       -3.885817   1.000000
   38       -3.868114   1.000000
   39       -3.788609   1.000000
   40       -3.772514   1.000000
   41       -3.735302   1.000000
   42       -3.691780   1.000000
   43       -3.415393   1.000000
   44       -3.403350   1.000000
   45       -3.377607   1.000000
   46       -3.316479   1.000000
   47       -3.038596   1.000000
   48       -2.955490   1.000000
   49       -2.850559   1.000000
   50       -2.735520   1.000000
   51       -2.674885   1.000000
   52       -2.333483   1.000000
   53       -2.204495   1.000000
   54       -2.193404   1.000000
   55       -2.099441   1.000000
   56       -2.054201   1.000000
   57       -1.768233   1.000000
   58       -1.745950   1.000000
   59       -1.607171   1.000000
   60       -1.586589   1.000000
   61       -1.501638   1.000000
   62       -1.483970   1.000000
   63       -1.397242   1.000004
   64       -1.375307   1.000008
   65       -1.116805   1.005430
   66       -1.038824   1.017494
   67       -0.965770   1.033154
   68       -0.930050   1.035139
   69       -0.903345   1.029347
   70       -0.804531   0.897806
   71       -0.796891   0.878115
   72       -0.710707   0.570705
   73       -0.704981   0.546674
   74       -0.636106   0.266291
   75       -0.585424   0.107439
   76       -0.520070  -0.005716
   77       -0.495555  -0.024264
   78       -0.424660  -0.033537
   79       -0.368410  -0.021794
   80       -0.293753  -0.007972
   81       -0.257821  -0.004274
   82       -0.181143  -0.000866
   83       -0.103699  -0.000122
   84       -0.090732  -0.000085
   85       -0.052126  -0.000028
   86        0.011738  -0.000004
   87        0.385249  -0.000000
   88        0.451446  -0.000000
   89        1.295872  -0.000000
   90        1.481398  -0.000000
   91        1.708931  -0.000000
   92        1.709291  -0.000000
   93        1.817737  -0.000000
   94        1.852839  -0.000000
   95        2.542509  -0.000000
   96        2.688876  -0.000000
 
  0.0000000E+00  0.6250000E-01  0.0000000E+00  0.2083333E-01
    1      -10.060848   1.000000
    2       -8.834314   1.000000
    3       -7.767475   1.000000
    4       -7.618645   1.000000
    5       -7.329056   1.000000
    6       -7.299876   1.000000
    7       -7.292998   1.000000
    8       -7.168393   1.000000
    9       -7.143176   1.000000
   10       -7.135181   1.000000
   11       -6.761805   1.000000
   12       -6.693791   1.000000
   13       -6.679447   1.000000
   14       -6.655184   1.000000
   15       -6.647612   1.000000
   16       -6.508457   1.000000
   17       -6.476364   1.000000
   18       -6.465469   1.000000
   19       -6.417518   1.000000
   20       -5.923217   1.000000
   21       -5.702296   1.000000
   22       -5.681365   1.000000
   23       -5.430866   1.000000
   24       -4.861407   1.000000
   25       -4.838636   1.000000
   26       -4.710315   1.000000
   27       -4.598067   1.000000
   28       -4.581595   1.000000
   29       -4.515357   1.000000
   30       -4.458795   1.000000
   31       -4.306171   1.000000
   32       -4.194765   1.000000
   33       -4.154879   1.000000
   34       -4.048245   1.000000
   35       -4.028862   1.000000
   36       -3.920443   1.000000
   37       -3.877382   1.000000
   38       -3.866395   1.000000
   39       -3.795953   1.000000
   40       -3.768126   1.000000
   41       -3.731544   1.000000
   42       -3.693861   1.000000
   43       -3.417115   1.000000
   44       -3.404373   1.000000
   45       -3.375890   1.000000
   46       -3.317304   1.000000
   47       -3.024955   1.000000
   48       -2.960141   1.000000
   49       -2.838029   1.000000
   50       -2.786135   1.000000
   51       -2.645877   1.000000
   52       -2.336806   1.000000
   53       -2.207390   1.000000
   54       -2.194327   1.000000
   55       -2.097754   1.000000
   56       -2.058329   1.000000
   57       -1.783132   1.000000
   58       -1.699089   1.000000
   59       -1.646636   1.000000
   60       -1.587227   1.000000
   61       -1.495065   1.000000
   62       -1.478883   1.000000
   63       -1.417799   1.000002
   64       -1.320749   1.000043
   65       -1.138700   1.003633
   66       -1.025082   1.020513
   67       -0.972972   1.031946
   68       -0.955003   1.034563
   69       -0.888663   1.022173
   70       -0.853127   0.989011
   71       -0.755163   0.746120
   72       -0.725825   0.633068
   73       -0.691337   0.489021
   74       -0.640196   0.281469
   75       -0.596621   0.137375
   76       -0.516610  -0.009009
   77       -0.468650  -0.033761
   78       -0.434360  -0.034713
   79       -0.353473  -0.018448
   80       -0.326206  -0.012991
   81       -0.248096  -0.003560
   82       -0.172709  -0.000711
   83       -0.109084  -0.000142
   84       -0.072394  -0.000051
   85       -0.050782  -0.000027
   86        0.007125  -0.000004
   87        0.351390  -0.000000
   88        0.477781  -0.000000
   89        1.296263  -0.000000
   90        1.477146  -0.000000
   91        1.699466  -0.000000
   92        1.742172  -0.000000
   93        1.753727  -0.000000
   94        1.900827  -0.000000
   95        2.496541  -0.000000
   96        2.715661  -0.000000
 
  0.1875000E+00  0.6250000E-01  0.0000000E+00  0.2083333E-01
    1       -9.856786   1.000000
    2       -8.634898   1.000000
    3       -7.563061   1.000000
    4       -7.424784   1.000000
    5       -7.306600   1.000000
    6       -7.228925   1.000000
    7       -7.113701   1.000000
    8       -7.080958   1.000000
    9       -7.031155   1.000000
   10       -6.961559   1.000000
   11       -6.675260   1.000000
   12       -6.612886   1.000000
   13       -6.579532   1.000000
   14       -6.562015   1.000000
   15       -6.523067   1.000000
   16       -6.391500   1.000000
   17       -6.359486   1.000000
   18       -6.294286   1.000000
   19       -6.253390   1.000000
   20       -5.878800   1.000000
   21       -5.642339   1.000000
   22       -5.615582   1.000000
   23       -5.386087   1.000000
   24       -4.883972   1.000000
   25       -4.830745   1.000000
   26       -4.748143   1.000000
   27       -4.585840   1.000000
   28       -4.520844   1.000000
   29       -4.488048   1.000000
   30       -4.442902   1.000000
   31       -4.396740   1.000000
   32       -4.311513   1.000000
   33       -4.066564   1.000000
   34       -4.010756   1.000000
   35       -4.005897   1.000000
   36       -3.951690   1.000000
   37       -3.889429   1.000000
   38       -3.850023   1.000000
   39       -3.813104   1.000000
   40       -3.749341   1.000000
   41       -3.741776   1.000000
   42       -3.602567   1.000000
   43       -3.579916   1.000000
   44       -3.543819   1.000000
   45       -3.514130   1.000000
   46       -3.450261   1.000000
   47       -3.227342   1.000000
   48       -3.124784   1.000000
   49       -2.895067   1.000000
   50       -2.822538   1.000000
   51       -2.637541   1.000000
   52       -2.610206   1.000000
   53       -2.346538   1.000000
   54       -2.322498   1.000000
   55       -2.211835   1.000000
   56       -2.108167   1.000000
   57       -2.003355   1.000000
   58       -1.843682   1.000000
   59       -1.804767   1.000000
   60       -1.782203   1.000000
   61       -1.739719   1.000000
   62       -1.703935   1.000000
   63       -1.620114   1.000000
   64       -1.569889   1.000000
   65       -1.500488   1.000000
   66       -1.420161   1.000002
   67       -1.342716   1.000022
   68       -1.175460   1.001732
   69       -1.078927   1.010110
   70       -1.029494   1.019524
   71       -0.959554   1.034033
   72       -0.942718   1.035403
   73       -0.878498   1.015155
   74       -0.834278   0.960476
   75       -0.795800   0.875185
   76       -0.732063   0.658139
   77       -0.721916   0.617137
   78       -0.659981   0.358612
   79       -0.623416   0.221187
   80       -0.540637   0.019034
   81       -0.480492  -0.030769
   82       -0.445637  -0.035416
   83       -0.368472  -0.021808
   84       -0.265665  -0.004932
   85       -0.213792  -0.001784
   86        0.283328  -0.000000
   87        0.317141  -0.000000
   88        0.592123  -0.000000
   89        0.919321  -0.000000
   90        1.084992  -0.000000
   91        1.364789  -0.000000
   92        1.603653  -0.000000
   93        2.254204  -0.000000
   94        2.520788  -0.000000
   95        2.778004  -0.000000
   96        3.154232  -0.000000
 
  0.1250000E+00  0.1875000E+00  0.0000000E+00  0.2083333E-01
    1       -9.856853   1.000000
    2       -8.634962   1.000000
    3       -7.563144   1.000000
    4       -7.424749   1.000000
    5       -7.307180   1.000000
    6       -7.229658   1.000000
    7       -7.112344   1.000000
    8       -7.082145   1.000000
    9       -7.032120   1.000000
   10       -6.960490   1.000000
   11       -6.675516   1.000000
   12       -6.613955   1.000000
   13       -6.579896   1.000000
   14       -6.563670   1.000000
   15       -6.518251   1.000000
   16       -6.395307   1.000000
   17       -6.357788   1.000000
   18       -6.290523   1.000000
   19       -6.255207   1.000000
   20       -5.879410   1.000000
   21       -5.635212   1.000000
   22       -5.622156   1.000000
   23       -5.387839   1.000000
   24       -4.878774   1.000000
   25       -4.835962   1.000000
   26       -4.749188   1.000000
   27       -4.589327   1.000000
   28       -4.515622   1.000000
   29       -4.484841   1.000000
   30       -4.445885   1.000000
   31       -4.396874   1.000000
   32       -4.314384   1.000000
   33       -4.059757   1.000000
   34       -4.009299   1.000000
   35       -4.004309   1.000000
   36       -3.967759   1.000000
   37       -3.885978   1.000000
   38       -3.831374   1.000000
   39       -3.811788   1.000000
   40       -3.763965   1.000000
   41       -3.746206   1.000000
   42       -3.598091   1.000000
   43       -3.581894   1.000000
   44       -3.546850   1.000000
   45       -3.501625   1.000000
   46       -3.459940   1.000000
   47       -3.245609   1.000000
   48       -3.114441   1.000000
   49       -2.892250   1.000000
   50       -2.796413   1.000000
   51       -2.637112   1.000000
   52       -2.617811   1.000000
   53       -2.360247   1.000000
   54       -2.306291   1.000000
   55       -2.207125   1.000000
   56       -2.115894   1.000000
   57       -2.006061   1.000000
   58       -1.843605   1.000000
   59       -1.809721   1.000000
   60       -1.767616   1.000000
   61       -1.743864   1.000000
   62       -1.678567   1.000000
   63       -1.650807   1.000000
   64       -1.561490   1.000000
   65       -1.510991   1.000000
   66       -1.442276   1.000001
   67       -1.331216   1.000032
   68       -1.177612   1.001654
   69       -1.081579   1.009710
   70       -1.006994   1.024672
   71       -0.959933   1.033984
   72       -0.933497   1.035342
   73       -0.897523   1.026892
   74       -0.847265   0.981021
   75       -0.797438   0.879573
   76       -0.746536   0.714279
   77       -0.692426   0.493627
   78       -0.668254   0.392332
   79       -0.629525   0.242508
   80       -0.512851  -0.012322
   81       -0.460600  -0.034896
   82       -0.432264  -0.034499
   83       -0.354597  -0.018693
   84       -0.317577  -0.011492
   85       -0.238048  -0.002929
   86        0.269256  -0.000000
   87        0.338212  -0.000000
   88        0.591566  -0.000000
   89        0.919150  -0.000000
   90        1.093659  -0.000000
   91        1.368909  -0.000000
   92        1.603631  -0.000000
   93        2.249020  -0.000000
   94        2.532056  -0.000000
   95        2.775971  -0.000000
   96        3.144751  -0.000000
 
 -0.6250000E-01  0.1250000E+00  0.0000000E+00  0.2083333E-01
    1       -9.856683   1.000000
    2       -8.634811   1.000000
    3       -7.562954   1.000000
    4       -7.424684   1.000000
    5       -7.307008   1.000000
    6       -7.226947   1.000000
    7       -7.114969   1.000000
    8       -7.080948   1.000000
    9       -7.028699   1.000000
   10       -6.962495   1.000000
   11       -6.675410   1.000000
   12       -6.610259   1.000000
   13       -6.573595   1.000000
   14       -6.569839   1.000000
   15       -6.524725   1.000000
   16       -6.392077   1.000000
   17       -6.358135   1.000000
   18       -6.291686   1.000000
   19       -6.258235   1.000000
   20       -5.877821   1.000000
   21       -5.645537   1.000000
   22       -5.613211   1.000000
   23       -5.383562   1.000000
   24       -4.892647   1.000000
   25       -4.818235   1.000000
   26       -4.749972   1.000000
   27       -4.586328   1.000000
   28       -4.528694   1.000000
   29       -4.483732   1.000000
   30       -4.434221   1.000000
   31       -4.409024   1.000000
   32       -4.301013   1.000000
   33       -4.067058   1.000000
   34       -4.013461   1.000000
   35       -4.010627   1.000000
   36       -3.949719   1.000000
   37       -3.898407   1.000000
   38       -3.850076   1.000000
   39       -3.794954   1.000000
   40       -3.749709   1.000000
   41       -3.739115   1.000000
   42       -3.615927   1.000000
   43       -3.578221   1.000000
   44       -3.548341   1.000000
   45       -3.509471   1.000000
   46       -3.443801   1.000000
   47       -3.199248   1.000000
   48       -3.145335   1.000000
   49       -2.906239   1.000000
   50       -2.846594   1.000000
   51       -2.645074   1.000000
   52       -2.600485   1.000000
   53       -2.349150   1.000000
   54       -2.308345   1.000000
   55       -2.230019   1.000000
   56       -2.099255   1.000000
   57       -1.992208   1.000000
   58       -1.863261   1.000000
   59       -1.815359   1.000000
   60       -1.772494   1.000000
   61       -1.706933   1.000000
   62       -1.683726   1.000000
   63       -1.649409   1.000000
   64       -1.568539   1.000000
   65       -1.518742   1.000000
   66       -1.416094   1.000002
   67       -1.346463   1.000020
   68       -1.166533   1.002089
   69       -1.100993   1.007121
   70       -1.024273   1.020696
   71       -0.973239   1.031898
   72       -0.914718   1.032823
   73       -0.879108   1.015628
   74       -0.848058   0.982147
   75       -0.771645   0.802924
   76       -0.754947   0.745337
   77       -0.712141   0.576699
   78       -0.660043   0.358863
   79       -0.598028   0.141357
   80       -0.534194   0.010289
   81       -0.476556  -0.031953
   82       -0.442962  -0.035324
   83       -0.365870  -0.021214
   84       -0.274623  -0.005780
   85       -0.215713  -0.001858
   86        0.277999  -0.000000
   87        0.313077  -0.000000
   88        0.585310  -0.000000
   89        0.918977  -0.000000
   90        1.078899  -0.000000
   91        1.367369  -0.000000
   92        1.599410  -0.000000
   93        2.258028  -0.000000
   94        2.524590  -0.000000
   95        2.770658  -0.000000
   96        3.143234  -0.000000
 
  0.3125000E+00  0.6250000E-01  0.0000000E+00  0.2083333E-01
    1       -9.402963   1.000000
    2       -8.204317   1.000000
    3       -7.406809   1.000000
    4       -7.130694   1.000000
    5       -7.016935   1.000000
    6       -6.998555   1.000000
    7       -6.957696   1.000000
    8       -6.777819   1.000000
    9       -6.731081   1.000000
   10       -6.658410   1.000000
   11       -6.573501   1.000000
   12       -6.448213   1.000000
   13       -6.350319   1.000000
   14       -6.311920   1.000000
   15       -6.235400   1.000000
   16       -6.187243   1.000000
   17       -6.050261   1.000000
   18       -5.961538   1.000000
   19       -5.895967   1.000000
   20       -5.713600   1.000000
   21       -5.522238   1.000000
   22       -5.465275   1.000000
   23       -5.293099   1.000000
   24       -4.984878   1.000000
   25       -4.913032   1.000000
   26       -4.810190   1.000000
   27       -4.723953   1.000000
   28       -4.657126   1.000000
   29       -4.566866   1.000000
   30       -4.372794   1.000000
   31       -4.367950   1.000000
   32       -4.278255   1.000000
   33       -4.198714   1.000000
   34       -4.172717   1.000000
   35       -4.118388   1.000000
   36       -3.991204   1.000000
   37       -3.941153   1.000000
   38       -3.901133   1.000000
   39       -3.837713   1.000000
   40       -3.788430   1.000000
   41       -3.746231   1.000000
   42       -3.676782   1.000000
   43       -3.646313   1.000000
   44       -3.598836   1.000000
   45       -3.546671   1.000000
   46       -3.480227   1.000000
   47       -3.407190   1.000000
   48       -3.227240   1.000000
   49       -3.163788   1.000000
   50       -2.987135   1.000000
   51       -2.906746   1.000000
   52       -2.796431   1.000000
   53       -2.716192   1.000000
   54       -2.651834   1.000000
   55       -2.594830   1.000000
   56       -2.545343   1.000000
   57       -2.507814   1.000000
   58       -2.489880   1.000000
   59       -2.393137   1.000000
   60       -2.353848   1.000000
   61       -2.220461   1.000000
   62       -2.100066   1.000000
   63       -2.014671   1.000000
   64       -1.964917   1.000000
   65       -1.842416   1.000000
   66       -1.784747   1.000000
   67       -1.746135   1.000000
   68       -1.593134   1.000000
   69       -1.470163   1.000000
   70       -1.446715   1.000001
   71       -1.400196   1.000004
   72       -1.323472   1.000040
   73       -1.238115   1.000408
   74       -1.173667   1.001799
   75       -1.076244   1.010526
   76       -1.064335   1.012513
   77       -0.965926   1.033130
   78       -0.923391   1.034433
   79       -0.868940   1.006833
   80       -0.755523   0.747418
   81       -0.694882   0.504019
   82       -0.624629   0.225362
   83       -0.606307   0.165755
   84       -0.522646  -0.003109
   85       -0.266953  -0.005047
   86       -0.000322  -0.000005
   87        0.383241  -0.000000
   88        0.668052  -0.000000
   89        0.987432  -0.000000
   90        1.421654  -0.000000
   91        1.843737  -0.000000
   92        1.965021  -0.000000
   93        2.338430  -0.000000
   94        2.496596  -0.000000
   95        3.201227  -0.000000
   96        3.605152  -0.000000
 
  0.2500000E+00  0.3125000E+00  0.0000000E+00  0.2083333E-01
    1       -9.403343   1.000000
    2       -8.204786   1.000000
    3       -7.407270   1.000000
    4       -7.133939   1.000000
    5       -7.014542   1.000000
    6       -7.001230   1.000000
    7       -6.958261   1.000000
    8       -6.779866   1.000000
    9       -6.734748   1.000000
   10       -6.652218   1.000000
   11       -6.574470   1.000000
   12       -6.450325   1.000000
   13       -6.348988   1.000000
   14       -6.319123   1.000000
   15       -6.225397   1.000000
   16       -6.187313   1.000000
   17       -6.042903   1.000000
   18       -5.960748   1.000000
   19       -5.895672   1.000000
   20       -5.719160   1.000000
   21       -5.501732   1.000000
   22       -5.483147   1.000000
   23       -5.302878   1.000000
   24       -4.985580   1.000000
   25       -4.916473   1.000000
   26       -4.813214   1.000000
   27       -4.723633   1.000000
   28       -4.638150   1.000000
   29       -4.592595   1.000000
   30       -4.389277   1.000000
   31       -4.361038   1.000000
   32       -4.279297   1.000000
   33       -4.183113   1.000000
   34       -4.161963   1.000000
   35       -4.120096   1.000000
   36       -3.970717   1.000000
   37       -3.943161   1.000000
   38       -3.899093   1.000000
   39       -3.817439   1.000000
   40       -3.806950   1.000000
   41       -3.740912   1.000000
   42       -3.688352   1.000000
   43       -3.657544   1.000000
   44       -3.630600   1.000000
   45       -3.566045   1.000000
   46       -3.492171   1.000000
   47       -3.384311   1.000000
   48       -3.223611   1.000000
   49       -3.084052   1.000000
   50       -2.970272   1.000000
   51       -2.916185   1.000000
   52       -2.799984   1.000000
   53       -2.712662   1.000000
   54       -2.670488   1.000000
   55       -2.618274   1.000000
   56       -2.540741   1.000000
   57       -2.511394   1.000000
   58       -2.475860   1.000000
   59       -2.390971   1.000000
   60       -2.325018   1.000000
   61       -2.233681   1.000000
   62       -2.104584   1.000000
   63       -2.016049   1.000000
   64       -1.955155   1.000000
   65       -1.856627   1.000000
   66       -1.787139   1.000000
   67       -1.698357   1.000000
   68       -1.586217   1.000000
   69       -1.532912   1.000000
   70       -1.452543   1.000001
   71       -1.409078   1.000003
   72       -1.318675   1.000046
   73       -1.223217   1.000587
   74       -1.184281   1.001433
   75       -1.105057   1.006652
   76       -1.067109   1.012030
   77       -0.984426   1.029709
   78       -0.924817   1.034621
   79       -0.821158   0.935569
   80       -0.774112   0.810930
   81       -0.702935   0.538053
   82       -0.680427   0.443001
   83       -0.533518   0.009425
   84       -0.421500  -0.033061
   85       -0.374720  -0.023248
   86       -0.017652  -0.000009
   87        0.384193  -0.000000
   88        0.673550  -0.000000
   89        0.988352  -0.000000
   90        1.476022  -0.000000
   91        1.837375  -0.000000
   92        1.956881  -0.000000
   93        2.333817  -0.000000
   94        2.502111  -0.000000
   95        3.203550  -0.000000
   96        3.574769  -0.000000
 
 -0.6250000E-01  0.2500000E+00  0.0000000E+00  0.2083333E-01
    1       -9.402798   1.000000
    2       -8.204191   1.000000
    3       -7.406787   1.000000
    4       -7.130499   1.000000
    5       -7.017410   1.000000
    6       -6.998510   1.000000
    7       -6.955631   1.000000
    8       -6.778491   1.000000
    9       -6.732181   1.000000
   10       -6.653070   1.000000
   11       -6.576089   1.000000
   12       -6.447045   1.000000
   13       -6.347465   1.000000
   14       -6.315509   1.000000
   15       -6.232643   1.000000
   16       -6.193113   1.000000
   17       -6.047405   1.000000
   18       -5.961250   1.000000
   19       -5.903214   1.000000
   20       -5.710022   1.000000
   21       -5.519809   1.000000
   22       -5.468173   1.000000
   23       -5.290724   1.000000
   24       -4.985494   1.000000
   25       -4.913866   1.000000
   26       -4.801703   1.000000
   27       -4.726467   1.000000
   28       -4.661808   1.000000
   29       -4.560372   1.000000
   30       -4.383456   1.000000
   31       -4.350842   1.000000
   32       -4.287356   1.000000
   33       -4.208661   1.000000
   34       -4.166218   1.000000
   35       -4.111533   1.000000
   36       -3.989356   1.000000
   37       -3.924648   1.000000
   38       -3.902103   1.000000
   39       -3.848699   1.000000
   40       -3.770612   1.000000
   41       -3.745251   1.000000
   42       -3.689236   1.000000
   43       -3.668538   1.000000
   44       -3.612801   1.000000
   45       -3.543442   1.000000
   46       -3.477069   1.000000
   47       -3.371288   1.000000
   48       -3.229074   1.000000
   49       -3.196340   1.000000
   50       -2.997717   1.000000
   51       -2.913224   1.000000
   52       -2.793414   1.000000
   53       -2.694093   1.000000
   54       -2.656082   1.000000
   55       -2.611772   1.000000
   56       -2.525193   1.000000
   57       -2.518444   1.000000
   58       -2.486520   1.000000
   59       -2.409061   1.000000
   60       -2.356658   1.000000
   61       -2.238058   1.000000
   62       -2.079074   1.000000
   63       -2.037781   1.000000
   64       -1.955032   1.000000
   65       -1.829785   1.000000
   66       -1.803926   1.000000
   67       -1.750009   1.000000
   68       -1.563663   1.000000
   69       -1.495164   1.000000
   70       -1.428762   1.000001
   71       -1.333821   1.000029
   72       -1.299638   1.000080
   73       -1.253354   1.000278
   74       -1.193501   1.001169
   75       -1.111379   1.005970
   76       -1.054164   1.014387
   77       -0.964794   1.033303
   78       -0.920271   1.033949
   79       -0.871875   1.009575
   80       -0.757754   0.755414
   81       -0.717636   0.599524
   82       -0.619802   0.208941
   83       -0.584428   0.104928
   84       -0.524075  -0.001604
   85       -0.259647  -0.004421
   86       -0.017263  -0.000009
   87        0.387351  -0.000000
   88        0.662943  -0.000000
   89        0.990115  -0.000000
   90        1.422355  -0.000000
   91        1.844290  -0.000000
   92        1.953881  -0.000000
   93        2.332470  -0.000000
   94        2.504729  -0.000000
   95        3.200678  -0.000000
   96        3.614772  -0.000000
 
  0.4375000E+00  0.6250000E-01  0.0000000E+00  0.2083333E-01
    1       -8.763705   1.000000
    2       -7.774025   1.000000
    3       -7.653265   1.000000
    4       -7.052094   1.000000
    5       -6.686598   1.000000
    6       -6.630207   1.000000
    7       -6.534545   1.000000
    8       -6.452414   1.000000
    9       -6.430353   1.000000
   10       -6.392379   1.000000
   11       -6.351017   1.000000
   12       -6.187895   1.000000
   13       -6.070660   1.000000
   14       -6.004173   1.000000
   15       -5.927135   1.000000
   16       -5.888127   1.000000
   17       -5.785897   1.000000
   18       -5.585494   1.000000
   19       -5.562930   1.000000
   20       -5.407011   1.000000
   21       -5.305074   1.000000
   22       -5.251629   1.000000
   23       -5.214889   1.000000
   24       -5.093971   1.000000
   25       -5.051593   1.000000
   26       -4.955044   1.000000
   27       -4.878276   1.000000
   28       -4.820308   1.000000
   29       -4.616160   1.000000
   30       -4.602954   1.000000
   31       -4.530765   1.000000
   32       -4.478213   1.000000
   33       -4.378790   1.000000
   34       -4.324593   1.000000
   35       -4.274501   1.000000
   36       -4.187142   1.000000
   37       -4.114772   1.000000
   38       -4.027728   1.000000
   39       -3.978003   1.000000
   40       -3.883951   1.000000
   41       -3.798753   1.000000
   42       -3.717526   1.000000
   43       -3.700582   1.000000
   44       -3.628124   1.000000
   45       -3.557396   1.000000
   46       -3.511661   1.000000
   47       -3.494577   1.000000
   48       -3.419758   1.000000
   49       -3.375117   1.000000
   50       -3.310231   1.000000
   51       -3.277981   1.000000
   52       -3.214640   1.000000
   53       -3.140348   1.000000
   54       -3.074894   1.000000
   55       -2.905650   1.000000
   56       -2.887842   1.000000
   57       -2.829656   1.000000
   58       -2.765818   1.000000
   59       -2.694972   1.000000
   60       -2.658385   1.000000
   61       -2.449922   1.000000
   62       -2.405686   1.000000
   63       -2.324854   1.000000
   64       -2.207319   1.000000
   65       -2.163543   1.000000
   66       -2.113574   1.000000
   67       -2.057313   1.000000
   68       -1.939580   1.000000
   69       -1.884332   1.000000
   70       -1.856825   1.000000
   71       -1.740649   1.000000
   72       -1.690282   1.000000
   73       -1.600949   1.000000
   74       -1.474617   1.000000
   75       -1.403233   1.000003
   76       -1.340420   1.000024
   77       -1.134465   1.003936
   78       -1.052897   1.014631
   79       -0.997674   1.026810
   80       -0.811631   0.914785
   81       -0.727243   0.638805
   82       -0.653458   0.332568
   83       -0.605956   0.164687
   84       -0.509291  -0.015213
   85       -0.286523  -0.007080
   86       -0.178627  -0.000817
   87        0.675542  -0.000000
   88        0.837742  -0.000000
   89        1.098623  -0.000000
   90        1.575994  -0.000000
   91        1.955184  -0.000000
   92        2.088253  -0.000000
   93        2.442128  -0.000000
   94        2.722874  -0.000000
   95        3.486382  -0.000000
   96        3.804227  -0.000000
 
  0.3750000E+00  0.4375000E+00  0.0000000E+00  0.2083333E-01
    1       -8.764849   1.000000
    2       -7.778490   1.000000
    3       -7.650138   1.000000
    4       -7.054238   1.000000
    5       -6.692343   1.000000
    6       -6.628882   1.000000
    7       -6.535404   1.000000
    8       -6.463151   1.000000
    9       -6.428008   1.000000
   10       -6.398641   1.000000
   11       -6.342454   1.000000
   12       -6.188649   1.000000
   13       -6.063150   1.000000
   14       -5.999917   1.000000
   15       -5.939137   1.000000
   16       -5.886423   1.000000
   17       -5.757758   1.000000
   18       -5.606321   1.000000
   19       -5.532530   1.000000
   20       -5.421221   1.000000