   17   17    1    1
  0.4847811E+02  0.5557859E-09  0.5557859E-09  0.3080696E-08  0.5000000E-15
  1.000000000000000E-004
  CAR 
 unknown system                          
    161     52     96
 
  0.6250000E-01  0.6250000E-01  0.0000000E+00  0.2083333E-01
    1      -10.042917   1.000000
    2       -8.818183   1.000000
    3       -7.750173   1.000000
    4       -7.607258   1.000000
    5       -7.323799   1.000000
    6       -7.292126   1.000000
    7       -7.285549   1.000000
    8       -7.153952   1.000000
    9       -7.134846   1.000000
   10       -7.128935   1.000000
   11       -6.765622   1.000000
   12       -6.682891   1.000000
   13       -6.677130   1.000000
   14       -6.642997   1.000000
   15       -6.634758   1.000000
   16       -6.480971   1.000000
   17       -6.445814   1.000000
   18       -6.421768   1.000000
   19       -6.388613   1.000000
   20       -5.928116   1.000000
   21       -5.681745   1.000000
   22       -5.667313   1.000000
   23       -5.421636   1.000000
   24       -4.830224   1.000000
   25       -4.806507   1.000000
   26       -4.687700   1.000000
   27       -4.595792   1.000000
   28       -4.592467   1.000000
   29       -4.507685   1.000000
   30       -4.451706   1.000000
   31       -4.311313   1.000000
   32       -4.223342   1.000000
   33       -4.178217   1.000000
   34       -4.064483   1.000000
   35       -4.052084   1.000000
   36       -3.911655   1.000000
   37       -3.875770   1.000000
   38       -3.837700   1.000000
   39       -3.829730   1.000000
   40       -3.802183   1.000000
   41       -3.638553   1.000000
   42       -3.597679   1.000000
   43       -3.397784   1.000000
   44       -3.375903   1.000000
   45       -3.352694   1.000000
   46       -3.255161   1.000000
   47       -2.998295   1.000000
   48       -2.981207   1.000000
   49       -2.813716   1.000000
   50       -2.775881   1.000000
   51       -2.621689   1.000000
   52       -2.319765   1.000000
   53       -2.219061   1.000000
   54       -2.204280   1.000000
   55       -2.073251   1.000000
   56       -2.049283   1.000000
   57       -1.758149   1.000000
   58       -1.686986   1.000000
   59       -1.578407   1.000000
   60       -1.529002   1.000000
   61       -1.467097   1.000000
   62       -1.416849   1.000001
   63       -1.393248   1.000003
   64       -1.300933   1.000060
   65       -1.129072   1.003710
   66       -0.997146   1.024976
   67       -0.971627   1.030580
   68       -0.941529   1.035012
   69       -0.875635   1.019289
   70       -0.804496   0.917972
   71       -0.752453   0.766815
   72       -0.698839   0.556716
   73       -0.644890   0.332420
   74       -0.631697   0.281586
   75       -0.576039   0.105282
   76       -0.568197   0.086355
   77       -0.527148   0.012221
   78       -0.405206  -0.031736
   79       -0.399928  -0.030730
   80       -0.362240  -0.022336
   81       -0.321669  -0.013724
   82       -0.153599  -0.000553
   83       -0.078186  -0.000076
   84        0.018445  -0.000004
   85        0.081088  -0.000000
   86        0.140392  -0.000000
   87        0.383320  -0.000000
   88        0.559719  -0.000000
   89        1.288612  -0.000000
   90        1.470024  -0.000000
   91        1.714119  -0.000000
   92        1.723480  -0.000000
   93        1.744104  -0.000000
   94        1.911744  -0.000000
   95        2.479956  -0.000000
   96        2.681200  -0.000000
 
  0.0000000E+00  0.6250000E-01  0.0000000E+00  0.1041667E-01
    1      -10.042909   1.000000
    2       -8.818175   1.000000
    3       -7.750127   1.000000
    4       -7.607200   1.000000
    5       -7.320467   1.000000
    6       -7.301378   1.000000
    7       -7.279626   1.000000
    8       -7.153427   1.000000
    9       -7.135503   1.000000
   10       -7.128774   1.000000
   11       -6.765534   1.000000
   12       -6.684291   1.000000
   13       -6.675292   1.000000
   14       -6.645383   1.000000
   15       -6.632316   1.000000
   16       -6.482052   1.000000
   17       -6.451483   1.000000
   18       -6.411302   1.000000
   19       -6.392816   1.000000
   20       -5.928132   1.000000
   21       -5.679813   1.000000
   22       -5.669096   1.000000
   23       -5.421970   1.000000
   24       -4.823545   1.000000
   25       -4.812456   1.000000
   26       -4.687776   1.000000
   27       -4.598936   1.000000
   28       -4.590654   1.000000
   29       -4.507050   1.000000
   30       -4.451971   1.000000
   31       -4.311270   1.000000
   32       -4.223710   1.000000
   33       -4.177985   1.000000
   34       -4.066319   1.000000
   35       -4.050238   1.000000
   36       -3.909440   1.000000
   37       -3.878486   1.000000
   38       -3.837944   1.000000
   39       -3.825287   1.000000
   40       -3.806070   1.000000
   41       -3.643525   1.000000
   42       -3.591431   1.000000
   43       -3.395920   1.000000
   44       -3.379712   1.000000
   45       -3.350043   1.000000
   46       -3.254539   1.000000
   47       -3.019272   1.000000
   48       -2.969704   1.000000
   49       -2.829325   1.000000
   50       -2.735801   1.000000
   51       -2.637807   1.000000
   52       -2.321928   1.000000
   53       -2.220701   1.000000
   54       -2.207639   1.000000
   55       -2.063225   1.000000
   56       -2.054763   1.000000
   57       -1.742426   1.000000
   58       -1.680905   1.000000
   59       -1.598676   1.000000
   60       -1.553616   1.000000
   61       -1.465726   1.000000
   62       -1.408685   1.000002
   63       -1.397000   1.000003
   64       -1.266503   1.000157
   65       -1.117203   1.004626
   66       -1.000847   1.024120
   67       -0.983641   1.028042
   68       -0.949746   1.034192
   69       -0.905495   1.032657
   70       -0.786318   0.872604
   71       -0.698041   0.553366
   72       -0.694600   0.538879
   73       -0.668972   0.430741
   74       -0.646851   0.340190
   75       -0.582203   0.121245
   76       -0.563782   0.076384
   77       -0.539974   0.031009
   78       -0.405397  -0.031771
   79       -0.397990  -0.030342
   80       -0.368138  -0.023699
   81       -0.295962  -0.009446
   82       -0.174340  -0.000901
   83       -0.068293  -0.000057
   84       -0.028981  -0.000018
   85        0.079835  -0.000000
   86        0.170015  -0.000000
   87        0.460795  -0.000000
   88        0.486619  -0.000000
   89        1.286980  -0.000000
   90        1.469105  -0.000000
   91        1.705808  -0.000000
   92        1.743735  -0.000000
   93        1.774170  -0.000000
   94        1.875305  -0.000000
   95        2.490037  -0.000000
   96        2.678325  -0.000000
 
  0.1875000E+00  0.6250000E-01  0.0000000E+00  0.2083333E-01
    1       -9.839382   1.000000
    2       -8.618783   1.000000
    3       -7.545636   1.000000
    4       -7.414333   1.000000
    5       -7.300514   1.000000
    6       -7.220214   1.000000
    7       -7.107043   1.000000
    8       -7.072006   1.000000
    9       -7.021660   1.000000
   10       -6.954455   1.000000
   11       -6.679400   1.000000
   12       -6.598544   1.000000
   13       -6.567508   1.000000
   14       -6.561753   1.000000
   15       -6.508626   1.000000
   16       -6.362320   1.000000
   17       -6.326928   1.000000
   18       -6.265605   1.000000
   19       -6.222886   1.000000
   20       -5.879240   1.000000
   21       -5.624573   1.000000
   22       -5.598269   1.000000
   23       -5.375322   1.000000
   24       -4.867323   1.000000
   25       -4.794595   1.000000
   26       -4.731646   1.000000
   27       -4.582761   1.000000
   28       -4.520478   1.000000
   29       -4.496500   1.000000
   30       -4.428563   1.000000
   31       -4.400954   1.000000
   32       -4.332361   1.000000
   33       -4.069905   1.000000
   34       -4.029898   1.000000
   35       -3.998478   1.000000
   36       -3.967616   1.000000
   37       -3.895370   1.000000
   38       -3.848270   1.000000
   39       -3.771903   1.000000
   40       -3.747409   1.000000
   41       -3.734496   1.000000
   42       -3.594447   1.000000
   43       -3.533086   1.000000
   44       -3.505312   1.000000
   45       -3.453089   1.000000
   46       -3.399789   1.000000
   47       -3.192624   1.000000
   48       -3.133984   1.000000
   49       -2.899641   1.000000
   50       -2.831104   1.000000
   51       -2.619479   1.000000
   52       -2.576187   1.000000
   53       -2.347969   1.000000
   54       -2.303591   1.000000
   55       -2.226123   1.000000
   56       -2.064573   1.000000
   57       -1.975938   1.000000
   58       -1.840008   1.000000
   59       -1.765388   1.000000
   60       -1.730672   1.000000
   61       -1.720087   1.000000
   62       -1.620664   1.000000
   63       -1.601794   1.000000
   64       -1.539656   1.000000
   65       -1.440702   1.000001
   66       -1.413679   1.000002
   67       -1.292180   1.000077
   68       -1.172378   1.001541
   69       -1.098635   1.006418
   70       -1.043262   1.014846
   71       -0.928852   1.035449
   72       -0.888980   1.026886
   73       -0.873990   1.018148
   74       -0.850273   0.996020
   75       -0.761836   0.798724
   76       -0.720364   0.645459
   77       -0.702202   0.570813
   78       -0.666099   0.418743
   79       -0.590414   0.143975
   80       -0.563444   0.075643
   81       -0.511923  -0.005337
   82       -0.425859  -0.034716
   83       -0.314641  -0.012451
   84       -0.235538  -0.003295
   85       -0.100758  -0.000143
   86        0.285084  -0.000000
   87        0.356819  -0.000000
   88        0.588051  -0.000000
   89        0.919732  -0.000000
   90        1.090502  -0.000000
   91        1.387773  -0.000000
   92        1.618948  -0.000000
   93        2.238273  -0.000000
   94        2.551277  -0.000000
   95        2.767382  -0.000000
   96        3.137077  -0.000000
 
  0.1250000E+00  0.1875000E+00  0.0000000E+00  0.2083333E-01
    1       -9.839346   1.000000
    2       -8.618744   1.000000
    3       -7.545364   1.000000
    4       -7.414038   1.000000
    5       -7.299936   1.000000
    6       -7.221168   1.000000
    7       -7.106970   1.000000
    8       -7.071509   1.000000
    9       -7.021607   1.000000
   10       -6.954668   1.000000
   11       -6.678667   1.000000
   12       -6.598192   1.000000
   13       -6.569312   1.000000
   14       -6.558758   1.000000
   15       -6.511225   1.000000
   16       -6.366135   1.000000
   17       -6.322204   1.000000
   18       -6.269315   1.000000
   19       -6.218806   1.000000
   20       -5.879766   1.000000
   21       -5.621904   1.000000
   22       -5.600108   1.000000
   23       -5.376938   1.000000
   24       -4.862083   1.000000
   25       -4.797790   1.000000
   26       -4.731629   1.000000
   27       -4.583525   1.000000
   28       -4.513773   1.000000
   29       -4.508318   1.000000
   30       -4.431123   1.000000
   31       -4.393709   1.000000
   32       -4.334143   1.000000
   33       -4.072147   1.000000
   34       -4.028994   1.000000
   35       -3.993832   1.000000
   36       -3.972954   1.000000
   37       -3.886138   1.000000
   38       -3.849020   1.000000
   39       -3.778956   1.000000
   40       -3.757291   1.000000
   41       -3.731348   1.000000
   42       -3.586575   1.000000
   43       -3.535802   1.000000
   44       -3.497618   1.000000
   45       -3.450042   1.000000
   46       -3.407059   1.000000
   47       -3.212786   1.000000
   48       -3.127468   1.000000
   49       -2.881019   1.000000
   50       -2.826656   1.000000
   51       -2.632631   1.000000
   52       -2.580475   1.000000
   53       -2.349415   1.000000
   54       -2.319628   1.000000
   55       -2.195464   1.000000
   56       -2.081941   1.000000
   57       -1.959108   1.000000
   58       -1.802472   1.000000
   59       -1.781963   1.000000
   60       -1.762841   1.000000
   61       -1.711250   1.000000
   62       -1.658140   1.000000
   63       -1.585762   1.000000
   64       -1.516311   1.000000
   65       -1.462252   1.000000
   66       -1.359768   1.000010
   67       -1.329417   1.000026
   68       -1.152105   1.002358
   69       -1.088168   1.007643
   70       -1.013015   1.021316
   71       -0.939975   1.035124
   72       -0.910913   1.033803
   73       -0.885489   1.025173
   74       -0.846310   0.991201
   75       -0.785882   0.871414
   76       -0.724572   0.662271
   77       -0.705237   0.583476
   78       -0.663095   0.406260
   79       -0.624092   0.253598
   80       -0.527148   0.012221
   81       -0.490833  -0.022074
   82       -0.393475  -0.029408
   83       -0.351393  -0.019870
   84       -0.247523  -0.004136
   85       -0.104364  -0.000157
   86        0.273098  -0.000000
   87        0.349909  -0.000000
   88        0.595473  -0.000000
   89        0.918157  -0.000000
   90        1.096518  -0.000000
   91        1.390144  -0.000000
   92        1.625622  -0.000000
   93        2.241124  -0.000000
   94        2.545922  -0.000000
   95        2.774116  -0.000000
   96        3.142944  -0.000000
 
 -0.6250000E-01  0.1250000E+00  0.0000000E+00  0.2083333E-01
    1       -9.839323   1.000000
    2       -8.618716   1.000000
    3       -7.545115   1.000000
    4       -7.413777   1.000000
    5       -7.299482   1.000000
    6       -7.222463   1.000000
    7       -7.105985   1.000000
    8       -7.071272   1.000000
    9       -7.022040   1.000000
   10       -6.954612   1.000000
   11       -6.678757   1.000000
   12       -6.597963   1.000000
   13       -6.569717   1.000000
   14       -6.559124   1.000000
   15       -6.509531   1.000000
   16       -6.367099   1.000000
   17       -6.327703   1.000000
   18       -6.262721   1.000000
   19       -6.219550   1.000000
   20       -5.880160   1.000000
   21       -5.615606   1.000000
   22       -5.605896   1.000000
   23       -5.377994   1.000000
   24       -4.852804   1.000000
   25       -4.805863   1.000000
   26       -4.731592   1.000000
   27       -4.589865   1.000000
   28       -4.510579   1.000000
   29       -4.507841   1.000000
   30       -4.432455   1.000000
   31       -4.389401   1.000000
   32       -4.335994   1.000000
   33       -4.073657   1.000000
   34       -4.028572   1.000000
   35       -3.993788   1.000000
   36       -3.971642   1.000000
   37       -3.885402   1.000000
   38       -3.846250   1.000000
   39       -3.782260   1.000000
   40       -3.757175   1.000000
   41       -3.734171   1.000000
   42       -3.578735   1.000000
   43       -3.546700   1.000000
   44       -3.492673   1.000000
   45       -3.439082   1.000000
   46       -3.417403   1.000000
   47       -3.226152   1.000000
   48       -3.122604   1.000000
   49       -2.877697   1.000000
   50       -2.809251   1.000000
   51       -2.636444   1.000000
   52       -2.594195   1.000000
   53       -2.357487   1.000000
   54       -2.313349   1.000000
   55       -2.178713   1.000000
   56       -2.093414   1.000000
   57       -1.946322   1.000000
   58       -1.829378   1.000000
   59       -1.794108   1.000000
   60       -1.741715   1.000000
   61       -1.715003   1.000000
   62       -1.649860   1.000000
   63       -1.590000   1.000000
   64       -1.512095   1.000000
   65       -1.465697   1.000000
   66       -1.362711   1.000009
   67       -1.312362   1.000043
   68       -1.155141   1.002216
   69       -1.054228   1.012793
   70       -1.023581   1.018946
   71       -0.935461   1.035361
   72       -0.926286   1.035392
   73       -0.863426   1.009649
   74       -0.829958   0.967577
   75       -0.808530   0.926911
   76       -0.751530   0.763577
   77       -0.696416   0.546529
   78       -0.671793   0.442563
   79       -0.633433   0.288120
   80       -0.535563   0.024116
   81       -0.436503  -0.035399
   82       -0.414695  -0.033326
   83       -0.345359  -0.018538
   84       -0.304389  -0.010732
   85       -0.094055  -0.000119
   86        0.282272  -0.000000
   87        0.356708  -0.000000
   88        0.584850  -0.000000
   89        0.917321  -0.000000
   90        1.111460  -0.000000
   91        1.374081  -0.000000
   92        1.641924  -0.000000
   93        2.240992  -0.000000
   94        2.554486  -0.000000
   95        2.774344  -0.000000
   96        3.137178  -0.000000
 
  0.3125000E+00  0.6250000E-01  0.0000000E+00  0.2083333E-01
    1       -9.386796   1.000000
    2       -8.188595   1.000000
    3       -7.397757   1.000000
    4       -7.114362   1.000000
    5       -7.009039   1.000000
    6       -6.990100   1.000000
    7       -6.948888   1.000000
    8       -6.776024   1.000000
    9       -6.724999   1.000000
   10       -6.649836   1.000000
   11       -6.560171   1.000000
   12       -6.449573   1.000000
   13       -6.342069   1.000000
   14       -6.309267   1.000000
   15       -6.210063   1.000000
   16       -6.169099   1.000000
   17       -6.028670   1.000000
   18       -5.938284   1.000000
   19       -5.883511   1.000000
   20       -5.692217   1.000000
   21       -5.496348   1.000000
   22       -5.449393   1.000000
   23       -5.284247   1.000000
   24       -4.976550   1.000000
   25       -4.904222   1.000000
   26       -4.787059   1.000000
   27       -4.721711   1.000000
   28       -4.644472   1.000000
   29       -4.575916   1.000000
   30       -4.373634   1.000000
   31       -4.370937   1.000000
   32       -4.279549   1.000000
   33       -4.190482   1.000000
   34       -4.154187   1.000000
   35       -4.110792   1.000000
   36       -3.955333   1.000000
   37       -3.926220   1.000000
   38       -3.864036   1.000000
   39       -3.799873   1.000000
   40       -3.778374   1.000000
   41       -3.728207   1.000000
   42       -3.699443   1.000000
   43       -3.658524   1.000000
   44       -3.630529   1.000000
   45       -3.531955   1.000000
   46       -3.488963   1.000000
   47       -3.391079   1.000000
   48       -3.183967   1.000000
   49       -3.150649   1.000000
   50       -2.988425   1.000000
   51       -2.886525   1.000000
   52       -2.774558   1.000000
   53       -2.669055   1.000000
   54       -2.632594   1.000000
   55       -2.562742   1.000000
   56       -2.523448   1.000000
   57       -2.480805   1.000000
   58       -2.453162   1.000000
   59       -2.362850   1.000000
   60       -2.285811   1.000000
   61       -2.206771   1.000000
   62       -2.061364   1.000000
   63       -1.982357   1.000000
   64       -1.936618   1.000000
   65       -1.788217   1.000000
   66       -1.761375   1.000000
   67       -1.719634   1.000000
   68       -1.590381   1.000000
   69       -1.473600   1.000000
   70       -1.419238   1.000001
   71       -1.380116   1.000005
   72       -1.297301   1.000067
   73       -1.235046   1.000356
   74       -1.165208   1.001796
   75       -1.140307   1.002986
   76       -1.033238   1.016874
   77       -0.916881   1.034693
   78       -0.875657   1.019304
   79       -0.835872   0.976833
   80       -0.724279   0.661107
   81       -0.652683   0.363588
   82       -0.618775   0.234675
   83       -0.569551   0.089512
   84       -0.453086  -0.034789
   85       -0.339417  -0.017263
   86        0.018253  -0.000004
   87        0.383804  -0.000000
   88        0.666469  -0.000000
   89        1.022635  -0.000000
   90        1.432324  -0.000000
   91        1.814917  -0.000000
   92        1.996770  -0.000000
   93        2.376069  -0.000000
   94        2.479418  -0.000000
   95        3.236403  -0.000000
   96        3.604327  -0.000000
 
  0.2500000E+00  0.3125000E+00  0.0000000E+00  0.2083333E-01
    1       -9.386737   1.000000
    2       -8.188530   1.000000
    3       -7.397757   1.000000
    4       -7.113695   1.000000
    5       -7.008436   1.000000
    6       -6.989100   1.000000
    7       -6.950064   1.000000
    8       -6.777266   1.000000
    9       -6.724900   1.000000
   10       -6.650075   1.000000
   11       -6.557563   1.000000
   12       -6.449283   1.000000
   13       -6.342950   1.000000
   14       -6.309262   1.000000
   15       -6.217607   1.000000
   16       -6.161797   1.000000
   17       -6.031071   1.000000
   18       -5.937211   1.000000
   19       -5.879769   1.000000
   20       -5.694104   1.000000
   21       -5.498842   1.000000
   22       -5.445924   1.000000
   23       -5.286073   1.000000
   24       -4.977716   1.000000
   25       -4.903750   1.000000
   26       -4.785463   1.000000
   27       -4.718675   1.000000
   28       -4.645330   1.000000
   29       -4.578075   1.000000
   30       -4.380588   1.000000
   31       -4.369863   1.000000
   32       -4.274256   1.000000
   33       -4.178883   1.000000
   34       -4.165372   1.000000
   35       -4.110218   1.000000
   36       -3.956675   1.000000
   37       -3.927872   1.000000
   38       -3.869321   1.000000
   39       -3.797632   1.000000
   40       -3.771462   1.000000
   41       -3.738723   1.000000
   42       -3.693155   1.000000
   43       -3.662634   1.000000
   44       -3.631550   1.000000
   45       -3.534565   1.000000
   46       -3.489403   1.000000
   47       -3.396461   1.000000
   48       -3.183344   1.000000
   49       -3.142705   1.000000
   50       -2.974494   1.000000
   51       -2.896845   1.000000
   52       -2.775793   1.000000
   53       -2.690606   1.000000
   54       -2.628375   1.000000
   55       -2.580959   1.000000
   56       -2.506090   1.000000
   57       -2.484645   1.000000
   58       -2.434365   1.000000
   59       -2.363821   1.000000
   60       -2.272508   1.000000
   61       -2.197214   1.000000
   62       -2.060902   1.000000
   63       -2.016578   1.000000
   64       -1.905752   1.000000
   65       -1.807003   1.000000
   66       -1.752907   1.000000
   67       -1.718527   1.000000
   68       -1.552195   1.000000
   69       -1.480073   1.000000
   70       -1.433873   1.000001
   71       -1.382960   1.000005
   72       -1.276030   1.000121
   73       -1.215680   1.000573
   74       -1.178406   1.001352
   75       -1.133599   1.003403
   76       -1.083131   1.008292
   77       -0.919618   1.034981
   78       -0.867051   1.012800
   79       -0.847548   0.992742
   80       -0.716702   0.630663
   81       -0.672216   0.444339
   82       -0.606372   0.192785
   83       -0.565365   0.079904
   84       -0.463944  -0.032977
   85       -0.338897  -0.017153
   86        0.024969  -0.000003
   87        0.380585  -0.000000
   88        0.666351  -0.000000
   89        1.022579  -0.000000
   90        1.427696  -0.000000
   91        1.816083  -0.000000
   92        2.002412  -0.000000
   93        2.371031  -0.000000
   94        2.483612  -0.000000
   95        3.243151  -0.000000
   96        3.609802  -0.000000
 
 -0.6250000E-01  0.2500000E+00  0.0000000E+00  0.2083333E-01
    1       -9.386601   1.000000
    2       -8.188337   1.000000
    3       -7.396663   1.000000
    4       -7.114002   1.000000
    5       -7.004052   1.000000
    6       -6.993670   1.000000
    7       -6.948880   1.000000
    8       -6.775557   1.000000
    9       -6.724939   1.000000
   10       -6.649609   1.000000
   11       -6.560311   1.000000
   12       -6.448218   1.000000
   13       -6.342978   1.000000
   14       -6.309171   1.000000
   15       -6.215385   1.000000
   16       -6.163334   1.000000
   17       -6.035154   1.000000
   18       -5.935356   1.000000
   19       -5.870257   1.000000
   20       -5.703793   1.000000
   21       -5.479149   1.000000
   22       -5.461569   1.000000
   23       -5.291627   1.000000
   24       -4.966064   1.000000
   25       -4.901906   1.000000
   26       -4.793707   1.000000
   27       -4.734438   1.000000
   28       -4.635302   1.000000
   29       -4.580177   1.000000
   30       -4.379293   1.000000
   31       -4.368303   1.000000
   32       -4.270972   1.000000
   33       -4.178446   1.000000
   34       -4.150731   1.000000
   35       -4.128036   1.000000
   36       -3.971474   1.000000
   37       -3.910659   1.000000
   38       -3.873936   1.000000
   39       -3.799285   1.000000
   40       -3.764857   1.000000
   41       -3.730879   1.000000
   42       -3.699082   1.000000
   43       -3.664283   1.000000
   44       -3.638234   1.000000
   45       -3.553958   1.000000
   46       -3.489568   1.000000
   47       -3.399366   1.000000
   48       -3.161555   1.000000
   49       -3.142041   1.000000
   50       -2.968721   1.000000
   51       -2.907473   1.000000
   52       -2.766678   1.000000
   53       -2.694050   1.000000
   54       -2.638315   1.000000
   55       -2.569611   1.000000
   56       -2.509204   1.000000
   57       -2.486582   1.000000
   58       -2.427232   1.000000
   59       -2.351898   1.000000
   60       -2.298051   1.000000
   61       -2.200534   1.000000
   62       -2.087095   1.000000
   63       -2.005669   1.000000
   64       -1.856593   1.000000
   65       -1.832021   1.000000
   66       -1.750358   1.000000
   67       -1.672086   1.000000
   68       -1.563403   1.000000
   69       -1.514626   1.000000
   70       -1.431103   1.000001
   71       -1.352876   1.000013
   72       -1.281619   1.000104
   73       -1.218756   1.000532
   74       -1.148064   1.002559
   75       -1.105274   1.005724
   76       -1.048460   1.013851
   77       -0.970508   1.030802
   78       -0.859126   1.005580
   79       -0.808117   0.926014
   80       -0.780236   0.855583
   81       -0.701078   0.566109
   82       -0.640762   0.316232
   83       -0.543026   0.036048
   84       -0.464705  -0.032801
   85       -0.380196  -0.026477
   86        0.007988  -0.000005
   87        0.407886  -0.000000
   88        0.669502  -0.000000
   89        1.026716  -0.000000
   90        1.444943  -0.000000
   91        1.828734  -0.000000
   92        1.972161  -0.000000
   93        2.380924  -0.000000
   94        2.517773  -0.000000
   95        3.235826  -0.000000
   96        3.592909  -0.000000
 
  0.4375000E+00  0.6250000E-01  0.0000000E+00  0.2083333E-01
    1       -8.749443   1.000000
    2       -7.763682   1.000000
    3       -7.637304   1.000000
    4       -7.039598   1.000000
    5       -6.677829   1.000000
    6       -6.621941   1.000000
    7       -6.538503   1.000000
    8       -6.454507   1.000000
    9       -6.406864   1.000000
   10       -6.396004   1.000000
   11       -6.335138   1.000000
   12       -6.186527   1.000000
   13       -6.052853   1.000000
   14       -5.994751   1.000000
   15       -5.926113   1.000000
   16       -5.875024   1.000000
   17       -5.770949   1.000000
   18       -5.584114   1.000000
   19       -5.547150   1.000000
   20       -5.389989   1.000000
   21       -5.280236   1.000000
   22       -5.227756   1.000000
   23       -5.187394   1.000000
   24       -5.099333   1.000000
   25       -5.059352   1.000000
   26       -4.932708   1.000000
   27       -4.875466   1.000000
   28       -4.812519   1.000000
   29       -4.625682   1.000000
   30       -4.587438   1.000000
   31       -4.508333   1.000000
   32       -4.462741   1.000000
   33       -4.368892   1.000000
   34       -4.330425   1.000000
   35       -4.286899   1.000000
   36       -4.174696   1.000000
   37       -4.066625   1.000000
   38       -4.015294   1.000000
   39       -3.958943   1.000000
   40       -3.862426   1.000000
   41       -3.780748   1.000000
   42       -3.722614   1.000000
   43       -3.657992   1.000000
   44       -3.617287   1.000000
   45       -3.545347   1.000000
   46       -3.490908   1.000000
   47       -3.480630   1.000000
   48       -3.412068   1.000000
   49       -3.371938   1.000000
   50       -3.290156   1.000000
   51       -3.234666   1.000000
   52       -3.158023   1.000000
   53       -3.106312   1.000000
   54       -3.082161   1.000000
   55       -2.896500   1.000000
   56       -2.873128   1.000000
   57       -2.797035   1.000000
   58       -2.716759   1.000000
   59       -2.686270   1.000000
   60       -2.641556   1.000000
   61       -2.404697   1.000000
   62       -2.393373   1.000000
   63       -2.289039   1.000000
   64       -2.224425   1.000000
   65       -2.150426   1.000000
   66       -2.086048   1.000000
   67       -2.032813   1.000000
   68       -1.943191   1.000000
   69       -1.872150   1.000000
   70       -1.823322   1.000000
   71       -1.744230   1.000000
   72       -1.684793   1.000000
   73       -1.520211   1.000000
   74       -1.405481   1.000002
   75       -1.367764   1.000008
   76       -1.307297   1.000050
   77       -1.142753   1.002846
   78       -0.990306   1.026546
   79       -0.924246   1.035308
   80       -0.787877   0.876819
   81       -0.731269   0.688536
   82       -0.620808   0.241842
   83       -0.552584   0.053294
   84       -0.490223  -0.022441
   85       -0.358264  -0.021424
   86       -0.232655  -0.003115
   87        0.694168  -0.000000
   88        0.821288  -0.000000
   89        1.147135  -0.000000
   90        1.574871  -0.000000
   91        1.901426  -0.000000
   92        2.152487  -0.000000
   93        2.512238  -0.000000
   94        2.690363  -0.000000
   95        3.520850  -0.000000
   96        3.796682  -0.000000
 
  0.3750000E+00  0.4375000E+00  0.0000000E+00  0.2083333E-01
    1       -8.749374   1.000000
    2       -7.763723   1.000000
    3       -7.637240   1.000000
    4       -7.039503   1.000000
    5       -6.677422   1.000000
    6       -6.619598   1.000000
    7       -6.540748   1.000000
    8       -6.456426   1.000000
    9       -6.407424   1.000000
   10       -6.395927   1.000000
   11       -6.333859   1.000000
   12       -6.183766   1.000000
   13       -6.055342   1.000000
   14       -5.993086   1.000000
   15       -5.924830   1.000000
   16       -5.875890   1.000000
   17       -5.771284   1.000000
   18       -5.584567   1.000000
   19       -5.546902   1.000000
   20       -5.391367   1.000000