  17  17   0   0
  0.4847811E+02  0.5557859E-09  0.5557859E-09  0.3080696E-08  0.5000000E-15
  1.000000000000000E-004
  CAR 
 unknown system                          
      6.52865444    -12.04291791  301     -0.68540252      1.00000000
    -12.043  0.0000E+00  0.0000E+00
    -11.981  0.0000E+00  0.0000E+00
    -11.919  0.0000E+00  0.0000E+00
    -11.857  0.0000E+00  0.0000E+00
    -11.795  0.0000E+00  0.0000E+00
    -11.733  0.0000E+00  0.0000E+00
    -11.671 -0.3706E-28 -0.2294E-29
    -11.610 -0.4994E-26 -0.3114E-27
    -11.548 -0.5559E-24 -0.3473E-25
    -11.486 -0.5101E-22 -0.3193E-23
    -11.424 -0.3857E-20 -0.2420E-21
    -11.362 -0.2403E-18 -0.1512E-19
    -11.300 -0.1233E-16 -0.7783E-18
    -11.238 -0.5209E-15 -0.3302E-16
    -11.176 -0.1756E-13 -0.1120E-14
    -11.114 -0.5008E-12 -0.3212E-13
    -11.052 -0.1174E-10 -0.7589E-12
    -10.991 -0.2261E-09 -0.1475E-10
    -10.929 -0.3573E-08 -0.2359E-09
    -10.867 -0.4629E-07 -0.3102E-08
    -10.805 -0.4910E-06 -0.3350E-07
    -10.743 -0.4255E-05 -0.2969E-06
    -10.681 -0.3003E-04 -0.2156E-05
    -10.619 -0.1720E-03 -0.1281E-04
    -10.557 -0.7945E-03 -0.6199E-04
    -10.495 -0.2930E-02 -0.2434E-03
    -10.433 -0.8478E-02 -0.7682E-03
    -10.371 -0.1857E-01 -0.1918E-02
    -10.310 -0.2801E-01 -0.3652E-02
    -10.248 -0.1820E-01 -0.4778E-02
    -10.186  0.4044E-01 -0.2275E-02
    -10.124  0.1679E+00  0.8121E-02
    -10.062  0.3515E+00  0.2988E-01
    -10.000  0.5506E+00  0.6396E-01
     -9.938  0.7270E+00  0.1090E+00
     -9.876  0.8594E+00  0.1622E+00
     -9.814  0.9305E+00  0.2198E+00
     -9.752  0.9255E+00  0.2771E+00
     -9.691  0.8551E+00  0.3300E+00
     -9.629  0.7721E+00  0.3778E+00
     -9.567  0.7523E+00  0.4244E+00
     -9.505  0.8397E+00  0.4763E+00
     -9.443  0.9899E+00  0.5376E+00
     -9.381  0.1090E+01  0.6051E+00
     -9.319  0.1066E+01  0.6711E+00
     -9.257  0.9500E+00  0.7299E+00
     -9.195  0.8275E+00  0.7811E+00
     -9.133  0.7485E+00  0.8275E+00
     -9.071  0.7292E+00  0.8726E+00
     -9.010  0.8089E+00  0.9227E+00
     -8.948  0.1034E+01  0.9867E+00
     -8.886  0.1370E+01  0.1072E+01
     -8.824  0.1685E+01  0.1176E+01
     -8.762  0.1865E+01  0.1291E+01
     -8.700  0.1922E+01  0.1410E+01
     -8.638  0.1928E+01  0.1530E+01
     -8.576  0.1900E+01  0.1647E+01
     -8.514  0.1811E+01  0.1759E+01
     -8.452  0.1702E+01  0.1865E+01
     -8.391  0.1711E+01  0.1971E+01
     -8.329  0.1953E+01  0.2092E+01
     -8.267  0.2362E+01  0.2238E+01
     -8.205  0.2697E+01  0.2405E+01
     -8.143  0.2746E+01  0.2575E+01
     -8.081  0.2528E+01  0.2731E+01
     -8.019  0.2255E+01  0.2871E+01
     -7.957  0.2112E+01  0.3002E+01
     -7.895  0.2144E+01  0.3134E+01
     -7.833  0.2336E+01  0.3279E+01
     -7.771  0.2727E+01  0.3448E+01
     -7.710  0.3382E+01  0.3657E+01
     -7.648  0.4258E+01  0.3921E+01
     -7.586  0.5133E+01  0.4238E+01
     -7.524  0.5782E+01  0.4596E+01
     -7.462  0.6252E+01  0.4983E+01
     -7.400  0.6866E+01  0.5409E+01
     -7.338  0.7871E+01  0.5896E+01
     -7.276  0.9207E+01  0.6466E+01
     -7.214  0.1066E+02  0.7126E+01
     -7.152  0.1209E+02  0.7874E+01
     -7.090  0.1330E+02  0.8698E+01
     -7.029  0.1397E+02  0.9562E+01
     -6.967  0.1386E+02  0.1042E+02
     -6.905  0.1315E+02  0.1123E+02
     -6.843  0.1250E+02  0.1201E+02
     -6.781  0.1274E+02  0.1280E+02
     -6.719  0.1436E+02  0.1368E+02
     -6.657  0.1714E+02  0.1475E+02
     -6.595  0.2023E+02  0.1600E+02
     -6.533  0.2270E+02  0.1740E+02
     -6.471  0.2417E+02  0.1890E+02
     -6.410  0.2480E+02  0.2044E+02
     -6.348  0.2481E+02  0.2197E+02
     -6.286  0.2429E+02  0.2347E+02
     -6.224  0.2343E+02  0.2492E+02
     -6.162  0.2261E+02  0.2632E+02
     -6.100  0.2207E+02  0.2769E+02
     -6.038  0.2167E+02  0.2903E+02
     -5.976  0.2107E+02  0.3034E+02
     -5.914  0.2005E+02  0.3158E+02
     -5.852  0.1876E+02  0.3274E+02
     -5.790  0.1763E+02  0.3383E+02
     -5.729  0.1705E+02  0.3489E+02
     -5.667  0.1717E+02  0.3595E+02
     -5.605  0.1782E+02  0.3705E+02
     -5.543  0.1870E+02  0.3821E+02
     -5.481  0.1953E+02  0.3942E+02
     -5.419  0.2012E+02  0.4067E+02
     -5.357  0.2033E+02  0.4192E+02
     -5.295  0.2018E+02  0.4317E+02
     -5.233  0.1987E+02  0.4440E+02
     -5.171  0.1969E+02  0.4562E+02
     -5.110  0.1984E+02  0.4685E+02
     -5.048  0.2029E+02  0.4811E+02
     -4.986  0.2088E+02  0.4940E+02
     -4.924  0.2143E+02  0.5073E+02
     -4.862  0.2184E+02  0.5208E+02
     -4.800  0.2194E+02  0.5344E+02
     -4.738  0.2170E+02  0.5478E+02
     -4.676  0.2153E+02  0.5611E+02
     -4.614  0.2212E+02  0.5748E+02
     -4.552  0.2399E+02  0.5897E+02
     -4.490  0.2683E+02  0.6063E+02
     -4.429  0.2949E+02  0.6245E+02
     -4.367  0.3064E+02  0.6435E+02
     -4.305  0.2974E+02  0.6619E+02
     -4.243  0.2773E+02  0.6791E+02
     -4.181  0.2632E+02  0.6954E+02
     -4.119  0.2661E+02  0.7118E+02
     -4.057  0.2830E+02  0.7293E+02
     -3.995  0.3032E+02  0.7481E+02
     -3.933  0.3198E+02  0.7679E+02
     -3.871  0.3332E+02  0.7885E+02
     -3.810  0.3448E+02  0.8099E+02
     -3.748  0.3519E+02  0.8317E+02
     -3.686  0.3504E+02  0.8534E+02
     -3.624  0.3414E+02  0.8745E+02
     -3.562  0.3308E+02  0.8950E+02
     -3.500  0.3206E+02  0.9148E+02
     -3.438  0.3059E+02  0.9338E+02
     -3.376  0.2812E+02  0.9512E+02
     -3.314  0.2496E+02  0.9666E+02
     -3.252  0.2200E+02  0.9802E+02
     -3.190  0.1990E+02  0.9926E+02
     -3.129  0.1867E+02  0.1004E+03
     -3.067  0.1823E+02  0.1015E+03
     -3.005  0.1878E+02  0.1027E+03
     -2.943  0.2052E+02  0.1040E+03
     -2.881  0.2320E+02  0.1054E+03
     -2.819  0.2601E+02  0.1070E+03
     -2.757  0.2800E+02  0.1088E+03
     -2.695  0.2839E+02  0.1105E+03
     -2.633  0.2697E+02  0.1122E+03
     -2.571  0.2438E+02  0.1137E+03
     -2.510  0.2196E+02  0.1150E+03
     -2.448  0.2090E+02  0.1163E+03
     -2.386  0.2137E+02  0.1177E+03
     -2.324  0.2269E+02  0.1191E+03
     -2.262  0.2399E+02  0.1206E+03
     -2.200  0.2476E+02  0.1221E+03
     -2.138  0.2490E+02  0.1236E+03
     -2.076  0.2458E+02  0.1252E+03
     -2.014  0.2421E+02  0.1266E+03
     -1.952  0.2430E+02  0.1282E+03
     -1.890  0.2503E+02  0.1297E+03
     -1.829  0.2599E+02  0.1313E+03
     -1.767  0.2631E+02  0.1329E+03
     -1.705  0.2553E+02  0.1345E+03
     -1.643  0.2410E+02  0.1360E+03
     -1.581  0.2309E+02  0.1374E+03
     -1.519  0.2314E+02  0.1389E+03
     -1.457  0.2384E+02  0.1404E+03
     -1.395  0.2418E+02  0.1418E+03
     -1.333  0.2360E+02  0.1433E+03
     -1.271  0.2259E+02  0.1447E+03
     -1.210  0.2218E+02  0.1461E+03
     -1.148  0.2307E+02  0.1475E+03
     -1.086  0.2509E+02  0.1491E+03
     -1.024  0.2748E+02  0.1508E+03
     -0.962  0.2946E+02  0.1526E+03
     -0.900  0.3062E+02  0.1545E+03
     -0.838  0.3096E+02  0.1564E+03
     -0.776  0.3072E+02  0.1583E+03
     -0.714  0.3001E+02  0.1602E+03
     -0.652  0.2875E+02  0.1619E+03
     -0.590  0.2687E+02  0.1636E+03
     -0.529  0.2450E+02  0.1651E+03
     -0.467  0.2189E+02  0.1665E+03
     -0.405  0.1914E+02  0.1677E+03
     -0.343  0.1624E+02  0.1687E+03
     -0.281  0.1340E+02  0.1695E+03
     -0.219  0.1108E+02  0.1702E+03
     -0.157  0.9648E+01  0.1708E+03
     -0.095  0.8964E+01  0.1713E+03
     -0.033  0.8458E+01  0.1719E+03
      0.029  0.7604E+01  0.1723E+03
      0.091  0.6339E+01  0.1727E+03
      0.152  0.5051E+01  0.1730E+03
      0.214  0.4187E+01  0.1733E+03
      0.276  0.3897E+01  0.1735E+03
      0.338  0.3999E+01  0.1738E+03
      0.400  0.4238E+01  0.1740E+03
      0.462  0.4555E+01  0.1743E+03
      0.524  0.5069E+01  0.1746E+03
      0.586  0.5766E+01  0.1750E+03
      0.648  0.6331E+01  0.1754E+03
      0.710  0.6418E+01  0.1758E+03
      0.771  0.6038E+01  0.1762E+03
      0.833  0.5539E+01  0.1765E+03
      0.895  0.5258E+01  0.1768E+03
      0.957  0.5290E+01  0.1772E+03
      1.019  0.5547E+01  0.1775E+03
      1.081  0.5829E+01  0.1779E+03
      1.143  0.5846E+01  0.1782E+03
      1.205  0.5394E+01  0.1786E+03
      1.267  0.4600E+01  0.1788E+03
      1.329  0.3900E+01  0.1791E+03
      1.391  0.3685E+01  0.1793E+03
      1.452  0.4023E+01  0.1796E+03
      1.514  0.4672E+01  0.1798E+03
      1.576  0.5291E+01  0.1802E+03
      1.638  0.5659E+01  0.1805E+03
      1.700  0.5818E+01  0.1809E+03
      1.762  0.5982E+01  0.1813E+03
      1.824  0.6218E+01  0.1816E+03
      1.886  0.6259E+01  0.1820E+03
      1.948  0.5776E+01  0.1824E+03
      2.010  0.4807E+01  0.1827E+03
      2.071  0.3791E+01  0.1829E+03
      2.133  0.3157E+01  0.1831E+03
      2.195  0.3034E+01  0.1833E+03
      2.257  0.3339E+01  0.1835E+03
      2.319  0.3982E+01  0.1838E+03
      2.381  0.4901E+01  0.1841E+03
      2.443  0.5958E+01  0.1844E+03
      2.505  0.6880E+01  0.1849E+03
      2.567  0.7321E+01  0.1853E+03
      2.629  0.7042E+01  0.1857E+03
      2.691  0.6111E+01  0.1861E+03
      2.752  0.4933E+01  0.1864E+03
      2.814  0.4020E+01  0.1867E+03
      2.876  0.3669E+01  0.1869E+03
      2.938  0.3807E+01  0.1871E+03
      3.000  0.4122E+01  0.1874E+03
      3.062  0.4338E+01  0.1877E+03
      3.124  0.4396E+01  0.1879E+03
      3.186  0.4398E+01  0.1882E+03
      3.248  0.4393E+01  0.1885E+03
      3.310  0.4282E+01  0.1887E+03
      3.371  0.3968E+01  0.1890E+03
      3.433  0.3566E+01  0.1892E+03
      3.495  0.3337E+01  0.1894E+03
      3.557  0.3397E+01  0.1896E+03
      3.619  0.3594E+01  0.1898E+03
      3.681  0.3692E+01  0.1901E+03
      3.743  0.3613E+01  0.1903E+03
      3.805  0.3451E+01  0.1905E+03
      3.867  0.3313E+01  0.1907E+03
      3.929  0.3208E+01  0.1909E+03
      3.991  0.3087E+01  0.1911E+03
      4.052  0.2935E+01  0.1913E+03
      4.114  0.2763E+01  0.1915E+03
      4.176  0.2533E+01  0.1916E+03
      4.238  0.2160E+01  0.1917E+03
      4.300  0.1626E+01  0.1919E+03
      4.362  0.1045E+01  0.1919E+03
      4.424  0.5819E+00  0.1920E+03
      4.486  0.3203E+00  0.1920E+03
      4.548  0.2137E+00  0.1920E+03
      4.610  0.1599E+00  0.1920E+03
      4.671  0.9924E-01  0.1920E+03
      4.733  0.3665E-01  0.1920E+03
      4.795 -0.3506E-02  0.1920E+03
      4.857 -0.1577E-01  0.1920E+03
      4.919 -0.1245E-01  0.1920E+03
      4.981 -0.6231E-02  0.1920E+03
      5.043 -0.2288E-02  0.1920E+03
      5.105 -0.6477E-03  0.1920E+03
      5.167 -0.1447E-03  0.1920E+03
      5.229 -0.2588E-04  0.1920E+03
      5.291 -0.3732E-05  0.1920E+03
      5.352 -0.4366E-06  0.1920E+03
      5.414 -0.4158E-07  0.1920E+03
      5.476 -0.3232E-08  0.1920E+03
      5.538 -0.2056E-09  0.1920E+03
      5.600 -0.1071E-10  0.1920E+03
      5.662 -0.4580E-12  0.1920E+03
      5.724 -0.1607E-13  0.1920E+03
      5.786 -0.4484E-15  0.1920E+03
      5.848  0.0000E+00  0.1920E+03
      5.910  0.0000E+00  0.1920E+03
      5.972  0.0000E+00  0.1920E+03
      6.033  0.0000E+00  0.1920E+03
      6.095  0.0000E+00  0.1920E+03
      6.157  0.0000E+00  0.1920E+03
      6.219  0.0000E+00  0.1920E+03
      6.281  0.0000E+00  0.1920E+03
      6.343  0.0000E+00  0.1920E+03
      6.405  0.0000E+00  0.1920E+03
      6.467  0.0000E+00  0.1920E+03
      6.529  0.0000E+00  0.1920E+03
