   16   16  500    1
  0.5150799E+02  0.5557859E-09  0.5557859E-09  0.3080696E-08  0.5000000E-15
  1.000000000000000E-004
  CAR 
 unknown system                          
    160     20    112
 
  0.6250000E-01  0.6250000E-01  0.0000000E+00  0.3125000E-01
    1      -10.154776   1.000000
    2       -8.859119   1.000000
    3       -7.771427   1.000000
    4       -7.686446   1.000000
    5       -7.423758   1.000000
    6       -7.399099   1.000000
    7       -7.399099   1.000000
    8       -7.272205   1.000000
    9       -7.257017   1.000000
   10       -7.257017   1.000000
   11       -6.795385   1.000000
   12       -6.794454   1.000000
   13       -6.794454   1.000000
   14       -6.593138   1.000000
   15       -6.567802   1.000000
   16       -6.567802   1.000000
   17       -6.478927   1.000000
   18       -6.464718   1.000000
   19       -6.464718   1.000000
   20       -5.630691   1.000000
   21       -5.630691   1.000000
   22       -5.629749   1.000000
   23       -4.698764   1.000000
   24       -4.698764   1.000000
   25       -4.696570   1.000000
   26       -4.613545   1.000000
   27       -4.613545   1.000000
   28       -4.598901   1.000000
   29       -4.597955   1.000000
   30       -4.449904   1.000000
   31       -4.347189   1.000000
   32       -4.300701   1.000000
   33       -4.181958   1.000000
   34       -4.169991   1.000000
   35       -3.950368   1.000000
   36       -3.950368   1.000000
   37       -3.939647   1.000000
   38       -3.829046   1.000000
   39       -3.785478   1.000000
   40       -3.754760   1.000000
   41       -3.697802   1.000000
   42       -3.533445   1.000000
   43       -3.420984   1.000000
   44       -3.409640   1.000000
   45       -3.409640   1.000000
   46       -2.989745   1.000000
   47       -2.989745   1.000000
   48       -2.848364   1.000000
   49       -2.834101   1.000000
   50       -2.715020   1.000000
   51       -2.715020   1.000000
   52       -2.313568   1.000000
   53       -2.307231   1.000000
   54       -1.897819   1.000000
   55       -1.876731   1.000000
   56       -1.715092   1.000000
   57       -1.715092   1.000000
   58       -1.687544   1.000000
   59       -1.570948   1.000000
   60       -1.569049   1.000000
   61       -1.569049   1.000000
   62       -1.514166   1.000003
   63       -1.220111   1.006347
   64       -1.066956   1.034597
   65       -1.066956   1.034597
   66       -1.037668   1.034689
   67       -1.036494   1.034543
   68       -0.946716   0.960736
   69       -0.946716   0.960736
   70       -0.931172   0.930815
   71       -0.852755   0.691116
   72       -0.810858   0.519615
   73       -0.740712   0.238606
   74       -0.740712   0.238606
   75       -0.675323   0.057030
   76       -0.536542  -0.033478
   77       -0.536542  -0.033478
   78       -0.514329  -0.029416
   79       -0.321195  -0.001607
   80       -0.321195  -0.001607
   81       -0.272410  -0.000526
   82       -0.272410  -0.000526
   83       -0.241868  -0.000244
   84       -0.217058  -0.000126
   85       -0.020865  -0.000000
   86        0.083735  -0.000000
   87        0.395585  -0.000000
   88        0.395585  -0.000000
   89        1.230647  -0.000000
   90        1.546837  -0.000000
   91        1.674836  -0.000000
   92        1.674836  -0.000000
   93        1.804442  -0.000000
   94        1.804442  -0.000000
   95        2.617825  -0.000000
   96        2.617825  -0.000000
   97        2.915481  -0.000000
   98        4.627340  -0.000000
   99        4.734834   0.000000
  100        5.122167   0.000000
  101        5.153485   0.000000
  102        5.154066   0.000000
  103        5.154066   0.000000
  104        5.357450   0.000000
  105        5.357450   0.000000
  106        5.384617   0.000000
  107        5.513011   0.000000
  108        5.803160   0.000000
  109        5.803160   0.000000
  110        5.949178   0.000000
  111        6.355616   0.000000
  112        6.693196   0.000000
 
  0.1875000E+00  0.6250000E-01  0.0000000E+00  0.6250000E-01
    1       -9.950647   1.000000
    2       -8.657346   1.000000
    3       -7.564316   1.000000
    4       -7.493365   1.000000
    5       -7.406977   1.000000
    6       -7.328337   1.000000
    7       -7.208869   1.000000
    8       -7.189370   1.000000
    9       -7.142036   1.000000
   10       -7.074728   1.000000
   11       -6.700863   1.000000
   12       -6.696491   1.000000
   13       -6.687488   1.000000
   14       -6.554378   1.000000
   15       -6.483657   1.000000
   16       -6.375159   1.000000
   17       -6.363402   1.000000
   18       -6.328406   1.000000
   19       -6.257773   1.000000
   20       -5.573108   1.000000
   21       -5.573039   1.000000
   22       -5.568068   1.000000
   23       -4.802990   1.000000
   24       -4.740533   1.000000
   25       -4.711335   1.000000
   26       -4.661399   1.000000
   27       -4.630192   1.000000
   28       -4.536382   1.000000
   29       -4.503646   1.000000
   30       -4.478593   1.000000
   31       -4.465528   1.000000
   32       -4.149495   1.000000
   33       -4.098890   1.000000
   34       -4.057829   1.000000
   35       -3.971674   1.000000
   36       -3.945165   1.000000
   37       -3.942052   1.000000
   38       -3.908280   1.000000
   39       -3.890198   1.000000
   40       -3.653356   1.000000
   41       -3.621627   1.000000
   42       -3.620527   1.000000
   43       -3.594382   1.000000
   44       -3.553971   1.000000
   45       -3.549686   1.000000
   46       -3.359731   1.000000
   47       -3.193415   1.000000
   48       -3.062565   1.000000
   49       -2.776575   1.000000
   50       -2.704806   1.000000
   51       -2.636390   1.000000
   52       -2.437826   1.000000
   53       -2.382914   1.000000
   54       -2.097899   1.000000
   55       -1.952953   1.000000
   56       -1.866186   1.000000
   57       -1.850088   1.000000
   58       -1.821574   1.000000
   59       -1.798610   1.000000
   60       -1.795307   1.000000
   61       -1.772344   1.000000
   62       -1.735180   1.000000
   63       -1.578980   1.000000
   64       -1.528601   1.000002
   65       -1.513405   1.000003
   66       -1.430543   1.000047
   67       -1.148701   1.018010
   68       -1.129408   1.022330
   69       -1.124460   1.023473
   70       -1.070367   1.034216
   71       -0.977144   1.002731
   72       -0.976991   1.002570
   73       -0.974230   0.999595
   74       -0.914907   0.893014
   75       -0.836338   0.625850
   76       -0.835354   0.621835
   77       -0.797495   0.463116
   78       -0.732786   0.211274
   79       -0.690816   0.090563
   80       -0.671050   0.048840
   81       -0.488736  -0.023648
   82       -0.463437  -0.017945
   83       -0.453477  -0.015864
   84       -0.290416  -0.000808
   85       -0.265774  -0.000448
   86        0.182315  -0.000000
   87        0.279750  -0.000000
   88        0.842801  -0.000000
   89        0.893983  -0.000000
   90        1.147898  -0.000000
   91        1.311647  -0.000000
   92        1.665090  -0.000000
   93        2.172999  -0.000000
   94        2.566455  -0.000000
   95        3.038449  -0.000000
   96        3.414868  -0.000000
   97        3.598525  -0.000000
   98        4.755856   0.000000
   99        4.891417   0.000000
  100        5.090077   0.000000
  101        5.140415   0.000000
  102        5.259844   0.000000
  103        5.309188   0.000000
  104        5.401244   0.000000
  105        5.644961   0.000000
  106        5.769035   0.000000
  107        5.932385   0.000000
  108        6.041960   0.000000
  109        6.508337   0.000000
  110        6.578116   0.000000
  111        6.797864   0.000000
  112        6.840512   0.000000
 
  0.3125000E+00  0.6250000E-01  0.0000000E+00  0.6250000E-01
    1       -9.496632   1.000000
    2       -8.220609   1.000000
    3       -7.505997   1.000000
    4       -7.130298   1.000000
    5       -7.080075   1.000000
    6       -7.077115   1.000000
    7       -7.064632   1.000000
    8       -6.865341   1.000000
    9       -6.835133   1.000000
   10       -6.759000   1.000000
   11       -6.579509   1.000000
   12       -6.467851   1.000000
   13       -6.439178   1.000000
   14       -6.417951   1.000000
   15       -6.207991   1.000000
   16       -6.200878   1.000000
   17       -6.017875   1.000000
   18       -5.957594   1.000000
   19       -5.850016   1.000000
   20       -5.462775   1.000000
   21       -5.442537   1.000000
   22       -5.427702   1.000000
   23       -4.988500   1.000000
   24       -4.977627   1.000000
   25       -4.851570   1.000000
   26       -4.800073   1.000000
   27       -4.691847   1.000000
   28       -4.668245   1.000000
   29       -4.434909   1.000000
   30       -4.381833   1.000000
   31       -4.268901   1.000000
   32       -4.162735   1.000000
   33       -4.141562   1.000000
   34       -4.108922   1.000000
   35       -4.063726   1.000000
   36       -4.034714   1.000000
   37       -3.963913   1.000000
   38       -3.868068   1.000000
   39       -3.853983   1.000000
   40       -3.833956   1.000000
   41       -3.802918   1.000000
   42       -3.790242   1.000000
   43       -3.769512   1.000000
   44       -3.669337   1.000000
   45       -3.546703   1.000000
   46       -3.355947   1.000000
   47       -3.340689   1.000000
   48       -3.219626   1.000000
   49       -2.841447   1.000000
   50       -2.810586   1.000000
   51       -2.782525   1.000000
   52       -2.702288   1.000000
   53       -2.682250   1.000000
   54       -2.601566   1.000000
   55       -2.566853   1.000000
   56       -2.518757   1.000000
   57       -2.486422   1.000000
   58       -2.452224   1.000000
   59       -2.405553   1.000000
   60       -2.285796   1.000000
   61       -2.127068   1.000000
   62       -2.000440   1.000000
   63       -1.963640   1.000000
   64       -1.873405   1.000000
   65       -1.864488   1.000000
   66       -1.731334   1.000000
   67       -1.618079   1.000000
   68       -1.572859   1.000000
   69       -1.570225   1.000000
   70       -1.496832   1.000006
   71       -1.454933   1.000022
   72       -1.362135   1.000304
   73       -1.245884   1.004001
   74       -1.206151   1.008004
   75       -1.097317   1.029583
   76       -1.091777   1.030713
   77       -1.065966   1.034697
   78       -0.898750   0.848899
   79       -0.852316   0.689420
   80       -0.838168   0.633288
   81       -0.810137   0.516567
   82       -0.781780   0.397432
   83       -0.696307   0.103902
   84       -0.526529  -0.031828
   85       -0.509670  -0.028413
   86        0.358186  -0.000000
   87        0.416046  -0.000000
   88        0.588091  -0.000000
   89        0.969810  -0.000000
   90        1.739827  -0.000000
   91        1.956664  -0.000000
   92        1.965071  -0.000000
   93        2.316128  -0.000000
   94        2.711521  -0.000000
   95        3.270445  -0.000000
   96        3.958965  -0.000000
   97        4.235661  -0.000000
   98        5.044844   0.000000
   99        5.257204   0.000000
  100        5.305386   0.000000
  101        5.543374   0.000000
  102        5.576288   0.000000
  103        5.612181   0.000000
  104        5.672612   0.000000
  105        5.952547   0.000000
  106        6.461403   0.000000
  107        6.517169   0.000000
  108        6.863460   0.000000
  109        7.056225   0.000000
  110        7.245509   0.000000
  111        7.332559   0.000000
  112        7.506728   0.000000
 
  0.4375000E+00  0.6250000E-01  0.0000000E+00  0.6250000E-01
    1       -8.856816   1.000000
    2       -7.870179   1.000000
    3       -7.658286   1.000000
    4       -7.087315   1.000000
    5       -6.734748   1.000000
    6       -6.682960   1.000000
    7       -6.525842   1.000000
    8       -6.519194   1.000000
    9       -6.511805   1.000000
   10       -6.504678   1.000000
   11       -6.434853   1.000000
   12       -6.187011   1.000000
   13       -6.123088   1.000000
   14       -6.020896   1.000000
   15       -5.973116   1.000000
   16       -5.944534   1.000000
   17       -5.762265   1.000000
   18       -5.498702   1.000000
   19       -5.430318   1.000000
   20       -5.385086   1.000000
   21       -5.274320   1.000000
   22       -5.224965   1.000000
   23       -5.207396   1.000000
   24       -5.102462   1.000000
   25       -4.998256   1.000000
   26       -4.971598   1.000000
   27       -4.905509   1.000000
   28       -4.654660   1.000000
   29       -4.620931   1.000000
   30       -4.603132   1.000000
   31       -4.554849   1.000000
   32       -4.423856   1.000000
   33       -4.352364   1.000000
   34       -4.312212   1.000000
   35       -4.251303   1.000000
   36       -4.107394   1.000000
   37       -4.054311   1.000000
   38       -3.878910   1.000000
   39       -3.857033   1.000000
   40       -3.724263   1.000000
   41       -3.694411   1.000000
   42       -3.680652   1.000000
   43       -3.678580   1.000000
   44       -3.598032   1.000000
   45       -3.589803   1.000000
   46       -3.574111   1.000000
   47       -3.396501   1.000000
   48       -3.395860   1.000000
   49       -3.340755   1.000000
   50       -3.313553   1.000000
   51       -3.283920   1.000000
   52       -3.233030   1.000000
   53       -3.130431   1.000000
   54       -2.962832   1.000000
   55       -2.884906   1.000000
   56       -2.877842   1.000000
   57       -2.787826   1.000000
   58       -2.772142   1.000000
   59       -2.703939   1.000000
   60       -2.417708   1.000000
   61       -2.415656   1.000000
   62       -2.293911   1.000000
   63       -2.267284   1.000000
   64       -2.260825   1.000000
   65       -2.138631   1.000000
   66       -2.120349   1.000000
   67       -2.089600   1.000000
   68       -1.909427   1.000000
   69       -1.892261   1.000000
   70       -1.855582   1.000000
   71       -1.843384   1.000000
   72       -1.789966   1.000000
   73       -1.578756   1.000000
   74       -1.496292   1.000006
   75       -1.301308   1.001291
   76       -1.274911   1.002264
   77       -1.150679   1.017587
   78       -1.105804   1.027744
   79       -0.874873   0.772388
   80       -0.813920   0.532551
   81       -0.782351   0.399791
   82       -0.753370   0.284794
   83       -0.723841   0.182048
   84       -0.530850  -0.032584
   85       -0.510154  -0.028519
   86       -0.179954  -0.000044
   87        0.739406  -0.000000
   88        1.079062  -0.000000
   89        1.108710  -0.000000
   90        1.826699  -0.000000
   91        2.016468  -0.000000
   92        2.132959  -0.000000
   93        2.471783  -0.000000
   94        3.089069  -0.000000
   95        3.613321  -0.000000
   96        4.046549  -0.000000
   97        4.714875   0.000000
   98        5.295302   0.000000
   99        5.372649   0.000000
  100        5.477159   0.000000
  101        5.831370   0.000000
  102        6.241552   0.000000
  103        6.266048   0.000000
  104        6.411301   0.000000
  105        6.445649   0.000000
  106        6.483754   0.000000
  107        7.063927   0.000000
  108        7.081789   0.000000
  109        7.124967   0.000000
  110        7.408349   0.000000
  111        7.435468   0.000000
  112        7.511414   0.000000
 
 -0.4375000E+00  0.6250000E-01  0.0000000E+00  0.6250000E-01
    1       -8.505530   1.000000
    2       -8.166082   1.000000
    3       -7.398620   1.000000
    4       -7.201079   1.000000
    5       -6.629979   1.000000
    6       -6.553968   1.000000
    7       -6.512034   1.000000
    8       -6.416633   1.000000
    9       -6.415749   1.000000
   10       -6.302559   1.000000
   11       -6.281694   1.000000
   12       -6.161170   1.000000
   13       -6.083682   1.000000
   14       -5.973713   1.000000
   15       -5.807706   1.000000
   16       -5.725099   1.000000
   17       -5.603367   1.000000
   18       -5.582588   1.000000
   19       -5.486901   1.000000
   20       -5.409166   1.000000
   21       -5.173738   1.000000
   22       -5.132291   1.000000
   23       -5.117385   1.000000
   24       -5.114798   1.000000
   25       -5.043053   1.000000
   26       -5.009918   1.000000
   27       -4.964768   1.000000
   28       -4.884966   1.000000
   29       -4.637371   1.000000
   30       -4.634813   1.000000
   31       -4.552108   1.000000
   32       -4.466337   1.000000
   33       -4.442079   1.000000
   34       -4.363970   1.000000
   35       -4.251588   1.000000
   36       -4.117198   1.000000
   37       -4.033667   1.000000
   38       -3.908572   1.000000
   39       -3.840629   1.000000
   40       -3.822211   1.000000
   41       -3.777136   1.000000
   42       -3.720975   1.000000
   43       -3.661862   1.000000
   44       -3.655476   1.000000
   45       -3.626634   1.000000
   46       -3.621654   1.000000
   47       -3.586793   1.000000
   48       -3.560669   1.000000
   49       -3.525676   1.000000
   50       -3.509240   1.000000
   51       -3.393192   1.000000
   52       -3.303575   1.000000
   53       -3.043334   1.000000
   54       -2.980938   1.000000
   55       -2.943953   1.000000
   56       -2.852234   1.000000
   57       -2.810563   1.000000
   58       -2.739298   1.000000
   59       -2.668916   1.000000
   60       -2.541687   1.000000
   61       -2.461051   1.000000
   62       -2.341879   1.000000
   63       -2.314265   1.000000
   64       -2.260507   1.000000
   65       -2.209048   1.000000
   66       -2.187719   1.000000
   67       -2.165960   1.000000
   68       -2.035451   1.000000
   69       -2.011216   1.000000
   70       -1.977181   1.000000
   71       -1.882218   1.000000
   72       -1.848171   1.000000
   73       -1.839680   1.000000
   74       -1.702412   1.000000
   75       -1.305477   1.001177
   76       -1.305339   1.001181
   77       -1.158496   1.015959
   78       -1.110549   1.026677
   79       -0.822567   0.568911
   80       -0.800342   0.475139
   81       -0.799743   0.472606
   82       -0.738941   0.232389
   83       -0.579206  -0.034062
   84       -0.533323  -0.032988
   85       -0.511438  -0.028798
   86       -0.391247  -0.006230
   87        0.767889  -0.000000
   88        1.139370  -0.000000
   89        1.394904  -0.000000
   90        1.704057  -0.000000
   91        1.837977  -0.000000
   92        2.167805  -0.000000
   93        2.501096  -0.000000
   94        3.647146  -0.000000
   95        3.658850  -0.000000
   96        4.058547  -0.000000
   97        4.192365  -0.000000
   98        5.339949   0.000000
   99        5.746620   0.000000
  100        5.841858   0.000000
  101        6.056283   0.000000
  102        6.194947   0.000000
  103        6.280283   0.000000
  104        6.599018   0.000000
  105        6.607172   0.000000
  106        6.770809   0.000000
  107        6.870988   0.000000
  108        6.999153   0.000000
  109        7.154721   0.000000
  110        7.192087   0.000000
  111        7.225799   0.000000
  112        7.609341   0.000000
 
 -0.3125000E+00  0.6250000E-01  0.0000000E+00  0.6250000E-01
    1       -9.193669   1.000000
    2       -7.943748   1.000000
    3       -7.646488   1.000000
    4       -7.054537   1.000000
    5       -6.895632   1.000000
    6       -6.888110   1.000000
    7       -6.803506   1.000000
    8       -6.668276   1.000000
    9       -6.660033   1.000000
   10       -6.596224   1.000000
   11       -6.554169   1.000000
   12       -6.307324   1.000000
   13       -6.296751   1.000000
   14       -6.214163   1.000000
   15       -6.095131   1.000000
   16       -6.067215   1.000000
   17       -5.866191   1.000000
   18       -5.716185   1.000000
   19       -5.615487   1.000000
   20       -5.382192   1.000000
   21       -5.339766   1.000000
   22       -5.332218   1.000000
   23       -5.172039   1.000000
   24       -5.062716   1.000000
   25       -4.911900   1.000000
   26       -4.909649   1.000000
   27       -4.811060   1.000000
   28       -4.622796   1.000000
   29       -4.496514   1.000000
   30       -4.469765   1.000000
   31       -4.364264   1.000000
   32       -4.252076   1.000000
   33       -4.236815   1.000000
   34       -4.203515   1.000000
   35       -4.162865   1.000000
   36       -4.127958   1.000000
   37       -4.043162   1.000000
   38       -3.967356   1.000000
   39       -3.927909   1.000000
   40       -3.776887   1.000000
   41       -3.749796   1.000000
   42       -3.696220   1.000000
   43       -3.673888   1.000000
   44       -3.598184   1.000000
   45       -3.570064   1.000000
   46       -3.483939   1.000000
   47       -3.214168   1.000000
   48       -3.153690   1.000000
   49       -3.058972   1.000000
   50       -3.027352   1.000000
   51       -3.009443   1.000000
   52       -3.002752   1.000000
   53       -2.914834   1.000000
   54       -2.899032   1.000000
   55       -2.859456   1.000000
   56       -2.747099   1.000000
   57       -2.741364   1.000000
   58       -2.720025   1.000000
   59       -2.640171   1.000000
   60       -2.516267   1.000000
   61       -2.159146   1.000000
   62       -2.157535   1.000000
   63       -2.097153   1.000000
   64       -2.085828   1.000000
   65       -2.043374   1.000000
   66       -1.968509   1.000000
   67       -1.893810   1.000000
   68       -1.849913   1.000000
   69       -1.751372   1.000000
   70       -1.704801   1.000000
   71       -1.662334   1.000000
   72       -1.543482   1.000001
   73       -1.333570   1.000615
   74       -1.311073   1.001038
   75       -1.235694   1.004826
   76       -1.132030   1.021728
   77       -1.123278   1.023747
   78       -1.093593   1.030350
   79       -0.988985   1.013718
   80       -0.832701   0.610964
   81       -0.785673   0.413560
   82       -0.772947   0.361344
   83       -0.756935   0.298309
   84       -0.528273  -0.032141
   85       -0.509775  -0.028436
   86        0.063011  -0.000000
   87        0.680727  -0.000000
   88        0.752523  -0.000000
   89        1.049763  -0.000000
   90        1.799576  -0.000000
   91        2.062612  -0.000000
   92        2.347384  -0.000000
   93        2.409790  -0.000000
   94        2.525732  -0.000000
   95        3.496432  -0.000000
   96        4.018231  -0.000000
   97        4.779115   0.000000
   98        5.194931   0.000000
   99        5.243742   0.000000
  100        5.358331   0.000000
  101        5.518440   0.000000
  102        5.855907   0.000000
  103        5.931846   0.000000
  104        6.038122   0.000000
  105        6.174450   0.000000
  106        6.814341   0.000000
  107        6.827739   0.000000
  108        6.911240   0.000000
  109        7.114530   0.000000
  110        7.254816   0.000000
  111        7.551470   0.000000
  112        7.648676   0.000000
 
 -0.1875000E+00  0.6250000E-01  0.0000000E+00  0.6250000E-01
    1       -9.752092   1.000000
    2       -8.463903   1.000000
    3       -7.434846   1.000000
    4       -7.367988   1.000000
    5       -7.309592   1.000000
    6       -7.213874   1.000000
    7       -7.133262   1.000000
    8       -7.051852   1.000000
    9       -7.004632   1.000000
   10       -6.924861   1.000000
   11       -6.625112   1.000000
   12       -6.599165   1.000000
   13       -6.576349   1.000000
   14       -6.526212   1.000000
   15       -6.358639   1.000000
   16       -6.295963   1.000000
   17       -6.198832   1.000000
   18       -6.167511   1.000000
   19       -6.073241   1.000000
   20       -5.523576   1.000000
   21       -5.516926   1.000000
   22       -5.506963   1.000000
   23       -4.893046   1.000000
   24       -4.806487   1.000000
   25       -4.789918   1.000000
   26       -4.699947   1.000000
   27       -4.697133   1.000000
   28       -4.569906   1.000000
   29       -4.470539   1.000000
   30       -4.432006   1.000000
   31       -4.377803   1.000000
   32       -4.109895   1.000000
   33       -4.037524   1.000000
   34       -3.997283   1.000000
   35       -3.996962   1.000000
   36       -3.987455   1.000000
   37       -3.953696   1.000000
   38       -3.932115   1.000000
   39       -3.895398   1.000000
   40       -3.778774   1.000000
   41       -3.722411   1.000000
   42       -3.721863   1.000000
   43       -3.696280   1.000000
   44       -3.543096   1.000000
   45       -3.508615   1.000000
   46       -3.405231   1.000000
   47       -3.397251   1.000000
   48       -3.192929   1.000000
   49       -2.786628   1.000000
   50       -2.727596   1.000000
   51       -2.695884   1.000000
   52       -2.535387   1.000000
   53       -2.456766   1.000000
   54       -2.307169   1.000000
   55       -2.251785   1.000000
   56       -2.236113   1.000000
   57       -2.139622   1.000000
   58       -2.057476   1.000000
   59       -2.034361   1.000000
   60       -1.993451   1.000000
   61       -1.843435   1.000000
   62       -1.828995   1.000000
   63       -1.823545   1.000000
   64       -1.819240   1.000000
   65       -1.738254   1.000000
   66       -1.460524   1.000019
   67       -1.373830   1.000224
   68       -1.352176   1.000390
   69       -1.322182   1.000805
   70       -1.317728   1.000892
   71       -1.187277   1.010725
   72       -1.136772   1.020648
   73       -1.127356   1.022804
   74       -1.068629   1.034418
   75       -1.042770   1.035170
   76       -1.000645   1.021987
   77       -0.962446   0.985061
   78       -0.825513   0.581212
   79       -0.803097   0.486783
   80       -0.757655   0.301065
   81       -0.637766  -0.000086
   82       -0.595617  -0.029790
   83       -0.520085  -0.030598
   84       -0.500430  -0.026344
   85       -0.403492  -0.007648
   86        0.073955  -0.000000
   87        0.455680  -0.000000
   88        0.724587  -0.000000
   89        0.886931  -0.000000
   90        1.416642  -0.000000
   91        1.599069  -0.000000
   92        1.818918  -0.000000
   93        2.220271  -0.000000
   94        2.937987  -0.000000
   95        3.102471  -0.000000
   96        3.654536  -0.000000
   97        3.833259  -0.000000
   98        4.881448   0.000000
   99        5.048143   0.000000
  100        5.172769   0.000000
  101        5.273699   0.000000
  102        5.464948   0.000000
  103        5.471744   0.000000
  104        5.666119   0.000000
  105        5.776623   0.000000
  106        6.093467   0.000000
  107        6.149643   0.000000
  108        6.628862   0.000000
  109        6.660819   0.000000
  110        6.905976   0.000000
  111        6.955596   0.000000
  112        7.516097   0.000000
 
 -0.6250000E-01  0.6250000E-01  0.0000000E+00  0.3125000E-01
    1      -10.086126   1.000000
    2       -8.790989   1.000000
    3       -7.701364   1.000000
    4       -7.621110   1.000000
    5       -7.399678   1.000000
    6       -7.399678   1.000000
    7       -7.326510   1.000000
    8       -7.233230   1.000000
    9       -7.233230   1.000000
   10       -7.189357   1.000000
   11       -6.762220   1.000000
   12       -6.762220   1.000000
   13       -6.758923   1.000000
   14       -6.564358   1.000000
   15       -6.564358   1.000000
   16       -6.489743   1.000000
   17       -6.433142   1.000000
   18       -6.433142   1.000000
   19       -6.390333   1.000000
   20       -5.611689   1.000000
   21       -5.609595   1.000000
   22       -5.609595   1.000000
   23       -4.734959   1.000000
   24       -4.710698   1.000000
   25       -4.710698   1.000000
   26       -4.608694   1.000000
   27       -4.590408   1.000000
   28       -4.560003   1.000000
   29       -4.560003   1.000000
   30       -4.530046   1.000000
   31       -4.388511   1.000000
   32       -4.249723   1.000000
   33       -4.139558   1.000000
   34       -4.132481   1.000000
   35       -3.962341   1.000000
   36       -3.935342   1.000000
   37       -3.935342   1.000000
   38       -3.868530   1.000000
   39       -3.811136   1.000000
   40       -3.737973   1.000000
   41       -3.648258   1.000000
   42       -3.564077   1.000000
   43       -3.485100   1.000000
   44       -3.485100   1.000000
   45       -3.453434   1.000000
   46       -3.168779   1.000000
   47       -3.003419   1.000000
   48       -3.003419   1.000000
   49       -2.743235   1.000000
   50       -2.743235   1.000000
   51       -2.642725   1.000000
   52       -2.362092   1.000000
   53       -2.334130   1.000000
   54       -1.935858   1.000000
   55       -1.836581   1.000000
   56       -1.798387   1.000000
   57       -1.720124   1.000000
   58       -1.720124   1.000000
   59       -1.686308   1.000000
   60       -1.643784   1.000000
   61       -1.643784   1.000000
   62       -1.634609   1.000000
   63       -1.335962   1.000581
   64       -1.280923   1.002000
   65       -1.193080   1.009828
   66       -1.193080   1.009828
   67       -1.143350   1.019177
   68       -1.012395   1.028041
   69       -0.959604   0.981093
   70       -0.959604   0.981093
   71       -0.850427   0.682080
   72       -0.836502   0.626518
   73       -0.835124   0.620895
   74       -0.835124   0.620895
   75       -0.649968   0.014902
   76       -0.613094  -0.021183
   77       -0.613094  -0.021183
   78       -0.587065  -0.032424
   79       -0.488974  -0.023703
   80       -0.485427  -0.022882
   81       -0.485427  -0.022882
   82       -0.406327  -0.008008
   83       -0.328522  -0.001878
   84       -0.328522  -0.001878
   85        0.073197  -0.000000
   86        0.073197  -0.000000
   87        0.423301  -0.000000
   88        0.886311  -0.000000
   89        0.925747  -0.000000
   90        0.925747  -0.000000
   91        1.541195  -0.000000
   92        1.541195  -0.000000
   93        2.030409  -0.000000
   94        2.289228  -0.000000
   95        2.519645  -0.000000
   96        3.268564  -0.000000
   97        3.268564  -0.000000
   98        4.670515   0.000000
   99        4.787006   0.000000
  100        5.065712   0.000000
  101        5.065712   0.000000
  102        5.165524   0.000000
  103        5.205377   0.000000