 vasp.5.4.4.18Apr17-6-g9f103f2a35 (build Apr 28 2017 10:53:45) complex          
  
 executed on             LinuxIFC date 2017.08.10  21:32:14
 running on   28 total cores
 distrk:  each k-point on   28 cores,    1 groups
 distr:  one band on NCORES_PER_BAND=   1 cores,   28 groups


--------------------------------------------------------------------------------------------------------


 INCAR:
 POTCAR:    PAW_PBE Pt 04Feb2005                  

 ----------------------------------------------------------------------------- 
|                                                                             |
|           W    W    AA    RRRRR   N    N  II  N    N   GGGG   !!!           |
|           W    W   A  A   R    R  NN   N  II  NN   N  G    G  !!!           |
|           W    W  A    A  R    R  N N  N  II  N N  N  G       !!!           |
|           W WW W  AAAAAA  RRRRR   N  N N  II  N  N N  G  GGG   !            |
|           WW  WW  A    A  R   R   N   NN  II  N   NN  G    G                |
|           W    W  A    A  R    R  N    N  II  N    N   GGGG   !!!           |
|                                                                             |
|      For optimal performance we recommend to set                            |
|        NCORE= 4 - approx SQRT( number of cores)                             |
|      NCORE specifies how many cores store one orbital (NPAR=cpu/NCORE).     |
|      This setting can  greatly improve the performance of VASP for DFT.     |
|      The default,   NCORE=1            might be grossly inefficient         |
|      on modern multi-core architectures or massively parallel machines.     |
|      Do your own testing !!!!                                               |
|      Unfortunately you need to use the default for GW and RPA calculations. |
|      (for HF NCORE is supported but not extensively tested yet)             |
|                                                                             |
 ----------------------------------------------------------------------------- 

 POTCAR:    PAW_PBE Pt 04Feb2005                  
   VRHFIN =Pt: s1d9                                                             
   LEXCH  = PE                                                                  
   EATOM  =   729.1176 eV,   53.5886 Ry                                         
                                                                                
   TITEL  = PAW_PBE Pt 04Feb2005                                                
   LULTRA =        F    use ultrasoft PP ?                                      
   IUNSCR =        1    unscreen: 0-lin 1-nonlin 2-no                           
   RPACOR =    2.330    partial core radius                                     
   POMASS =  195.080; ZVAL   =   10.000    mass and valenz                      
   RCORE  =    2.600    outmost cutoff radius                                   
   RWIGS  =    2.750; RWIGS  =    1.455    wigner-seitz radius (au A)           
   ENMAX  =  230.283; ENMIN  =  172.712 eV                                      
   ICORE  =        3    local potential                                         
   LCOR   =        T    correct aug charges                                     
   LPAW   =        T    paw PP                                                  
   EAUG   =  358.966                                                            
   DEXC   =    0.000                                                            
   RMAX   =    2.658    core radius for proj-oper                               
   RAUG   =    1.300    factor for augmentation sphere                          
   RDEP   =    2.761    radius for radial grids                                 
   RDEPT  =    2.203    core radius for aug-charge                              
                                                                                
   Atomic configuration                                                         
   16 entries                                                                   
     n  l   j            E        occ.                                          
     1  0  0.50    -78401.1885   2.0000                                         
     2  0  0.50    -13770.7750   2.0000                                         
     2  1  1.50    -11931.0468   6.0000                                         
     3  0  0.50     -3234.7234   2.0000                                         
     3  1  1.50     -2699.2216   6.0000                                         
     3  2  2.50     -2119.5714  10.0000                                         
     4  0  0.50      -695.1528   2.0000                                         
     4  1  1.50      -519.6034   6.0000                                         
     4  2  2.50      -306.6786  10.0000                                         
     4  3  3.50       -70.1041  14.0000                                         
     5  0  0.50      -101.7747   2.0000                                         
     5  1  1.50       -55.9873   6.0000                                         
     5  2  2.50        -6.1423   9.0000                                         
     6  0  0.50        -5.6573   1.0000                                         
     6  1  1.50        -6.8029   0.0000                                         
     5  3  2.50        -1.3606   0.0000                                         
   Description                                                                  
     l       E           TYP  RCUT    TYP  RCUT                                 
     2     -6.1423404     23  2.500                                             
     2     -7.5029230     23  2.500                                             
     0     -5.6573207     23  2.500                                             
     0      0.7416693     23  2.500                                             
     1     -2.7211652     23  2.600                                             
     1     20.4087390     23  2.600                                             
     3     -1.3605826     23  2.500                                             
  local pseudopotential read in
  partial core-charges read in
  partial kinetic energy density read in
  atomic valenz-charges read in
  non local Contribution for L=           2  read in
    real space projection operators read in
  non local Contribution for L=           2  read in
    real space projection operators read in
  non local Contribution for L=           0  read in
    real space projection operators read in
  non local Contribution for L=           0  read in
    real space projection operators read in
  non local Contribution for L=           1  read in
    real space projection operators read in
  non local Contribution for L=           1  read in
    real space projection operators read in
    PAW grid and wavefunctions read in
 
   number of l-projection  operators is LMAX  =           6
   number of lm-projection operators is LMMAX =          18
 
  PAW_PBE Pt 04Feb2005                  :
 energy of atom  1       EATOM= -729.1176
 kinetic energy error for atom=    0.0144 (will be added to EATOM!!)
 
 
 POSCAR: Pt                                      
  positions in cartesian coordinates
  No initial velocities read in
 exchange correlation table for  LEXCH =        8
   RHO(1)=    0.500       N(1)  =     2000
   RHO(2)=  100.500       N(2)  =     4000
 


--------------------------------------------------------------------------------------------------------


 ion  position               nearest neighbor table
   1  0.000  0.000  0.390-   3 2.78   3 2.78   4 2.78   4 2.78   2 2.78   2 2.78   5 2.78   6 2.78
                             7 2.78
   2  0.500  0.000  0.390-   4 2.78   3 2.78   4 2.78   3 2.78   1 2.78   1 2.78   6 2.78   5 2.78
                             8 2.78
   3  0.000  0.500  0.390-   1 2.78   1 2.78   2 2.78   2 2.78   4 2.78   4 2.78   7 2.78   5 2.78
                             8 2.78
   4  0.500  0.500  0.390-   2 2.78   1 2.78   2 2.78   1 2.78   3 2.78   3 2.78   8 2.78   7 2.78
                             6 2.78
   5  0.167  0.167  0.463-   9 2.78  12 2.78  10 2.78   7 2.78   7 2.78   8 2.78   8 2.78   6 2.78
                             6 2.78   1 2.78   3 2.78   2 2.78
   6  0.667  0.167  0.463-  10 2.78  11 2.78   9 2.78   8 2.78   7 2.78   8 2.78   7 2.78   5 2.78
                             5 2.78   2 2.78   4 2.78   1 2.78
   7  0.167  0.667  0.463-  10 2.78  11 2.78  12 2.78   5 2.78   5 2.78   6 2.78   6 2.78   8 2.78
                             8 2.78   3 2.78   4 2.78   1 2.78
   8  0.667  0.667  0.463-   9 2.78  12 2.78  11 2.78   6 2.78   5 2.78   6 2.78   5 2.78   7 2.78
                             7 2.78   4 2.78   2 2.78   3 2.78
   9  0.833  0.333  0.537-   5 2.78   8 2.78   6 2.78  11 2.78  11 2.78  12 2.78  12 2.78  10 2.78
                            10 2.78  15 2.78  13 2.78  16 2.78
  10  0.333  0.333  0.537-   6 2.78   7 2.78   5 2.78  12 2.78  11 2.78  12 2.78  11 2.78   9 2.78
                             9 2.78  16 2.78  15 2.78  14 2.78
  11  0.833  0.833  0.537-   6 2.78   7 2.78   8 2.78   9 2.78   9 2.78  10 2.78  10 2.78  12 2.78
                            12 2.78  13 2.78  14 2.78  15 2.78
  12  0.333  0.833  0.537-   5 2.78   8 2.78   7 2.78  10 2.78   9 2.78  10 2.78   9 2.78  11 2.78
                            11 2.78  14 2.78  13 2.78  16 2.78
  13  0.000  0.000  0.610-  15 2.78  15 2.78  16 2.78  16 2.78  14 2.78  14 2.78  11 2.78   9 2.78
                            12 2.78
  14  0.500  0.000  0.610-  16 2.78  15 2.78  16 2.78  15 2.78  13 2.78  13 2.78  12 2.78  11 2.78
                            10 2.78
  15  0.000  0.500  0.610-  13 2.78  13 2.78  14 2.78  14 2.78  16 2.78  16 2.78   9 2.78  10 2.78
                            11 2.78
  16  0.500  0.500  0.610-  14 2.78  13 2.78  14 2.78  13 2.78  15 2.78  15 2.78  10 2.78   9 2.78
                            12 2.78
 
  LATTYP: Found a hexagonal cell.
 ALAT       =     5.5578593001
 C/A-ratio  =     5.5429542221
  
  Lattice vectors:
  
 A1 = (   2.7789296501,  -4.8132473446,   0.0000000000)
 A2 = (  -5.5578593001,   0.0000000000,   0.0000000000)
 A3 = (   0.0000000000,   0.0000000000, -30.8069596737)


Analysis of symmetry for initial positions (statically):
=====================================================================
 Subroutine PRICEL returns following result:
 
  LATTYP: Found a hexagonal cell.
 ALAT       =     2.7789296501
 C/A-ratio  =    11.0859084443
  
  Lattice vectors:
  
 A1 = (   1.3894648250,  -2.4066236723,   0.0000000000)
 A2 = (  -2.7789296501,   0.0000000000,   0.0000000000)
 A3 = (   0.0000000000,   0.0000000000, -30.8069596737)
 
   4 primitive cells build up your supercell.
 

 Routine SETGRP: Setting up the symmetry group for a 
 hexagonal supercell.


 Subroutine GETGRP returns: Found 12 space group operations
 (whereof 12 operations were pure point group operations)
 out of a pool of 24 trial point group operations.


The static configuration has the point symmetry D_3d.


Analysis of symmetry for dynamics (positions and initial velocities):
=====================================================================
 Subroutine PRICEL returns following result:
 
  LATTYP: Found a hexagonal cell.
 ALAT       =     2.7789296501
 C/A-ratio  =    11.0859084443
  
  Lattice vectors:
  
 A1 = (   1.3894648250,  -2.4066236723,   0.0000000000)
 A2 = (  -2.7789296501,   0.0000000000,   0.0000000000)
 A3 = (   0.0000000000,   0.0000000000, -30.8069596737)
 
   4 primitive cells build up your supercell.
 

 Routine SETGRP: Setting up the symmetry group for a 
 hexagonal supercell.


 Subroutine GETGRP returns: Found 12 space group operations
 (whereof 12 operations were pure point group operations)
 out of a pool of 24 trial point group operations.


The dynamic configuration has the point symmetry D_3d.


Analysis of constrained symmetry for selective dynamics:
=====================================================================
 Subroutine PRICEL returns following result:
 
  LATTYP: Found a hexagonal cell.
 ALAT       =     2.7789296501
 C/A-ratio  =    11.0859084443
  
  Lattice vectors:
  
 A1 = (   1.3894648250,  -2.4066236723,   0.0000000000)
 A2 = (  -2.7789296501,   0.0000000000,   0.0000000000)
 A3 = (   0.0000000000,   0.0000000000, -30.8069596737)
 
   4 primitive cells build up your supercell.
 

 Routine SETGRP: Setting up the symmetry group for a 
 hexagonal supercell.


 Subroutine GETGRP returns: Found  6 space group operations
 (whereof  6 operations were pure point group operations)
 out of a pool of 24 trial point group operations.


The constrained configuration has the point symmetry C_3v.


 Subroutine INISYM returns: Found  6 space group operations
 (whereof  6 operations are pure point group operations),
 and found     4 'primitive' translations

 
 
 KPOINTS: KPOINTS created by Atomic Simulation Env

Automatic generation of k-mesh.
Space group operators:
 irot       det(A)        alpha          n_x          n_y          n_z        tau_x        tau_y        tau_z
    1     1.000000     0.000001     1.000000     0.000000     0.000000     0.000000     0.000000     0.000000
    2     1.000000   120.000000     0.000000     0.000000     1.000000     0.000000     0.000000     0.000000
    3     1.000000   120.000000     0.000000     0.000000    -1.000000     0.000000     0.000000     0.000000
    4    -1.000000   180.000000     0.500000    -0.866025     0.000000     0.000000     0.000000     0.000000
    5    -1.000000   180.000000     1.000000     0.000000     0.000000     0.000000     0.000000     0.000000
    6    -1.000000   180.000000    -0.500000    -0.866025     0.000000     0.000000     0.000000     0.000000
 
 Subroutine IBZKPT returns following result:
 ===========================================
 
 Found     20 irreducible k-points:
 
 Following reciprocal coordinates:
            Coordinates               Weight
  0.062500  0.062500  0.000000     48.000000
  0.187500  0.062500  0.000000     96.000000
  0.312500  0.062500  0.000000     96.000000
  0.437500  0.062500  0.000000     96.000000
 -0.437500  0.062500  0.000000     96.000000
 -0.312500  0.062500  0.000000     96.000000
 -0.187500  0.062500  0.000000     96.000000
 -0.062500  0.062500  0.000000     48.000000
  0.187500  0.187500  0.000000     48.000000
  0.312500  0.187500  0.000000     96.000000
  0.437500  0.187500  0.000000     96.000000
 -0.437500  0.187500  0.000000     96.000000
 -0.312500  0.187500  0.000000     96.000000
 -0.187500  0.187500  0.000000     48.000000
  0.312500  0.312500  0.000000     48.000000
  0.437500  0.312500  0.000000     96.000000
 -0.437500  0.312500  0.000000     96.000000
 -0.312500  0.312500  0.000000     48.000000
  0.437500  0.437500  0.000000     48.000000
 -0.437500  0.437500  0.000000     48.000000
 
 Following cartesian coordinates:
            Coordinates               Weight
  0.011245  0.006492  0.000000     48.000000
  0.033736 -0.006492  0.000000     96.000000
  0.056227 -0.019477  0.000000     96.000000
  0.078717 -0.032462  0.000000     96.000000
 -0.078717  0.058432  0.000000     96.000000
 -0.056227  0.045447  0.000000     96.000000
 -0.033736  0.032462  0.000000     96.000000
 -0.011245  0.019477  0.000000     48.000000
  0.033736  0.019477  0.000000     48.000000
  0.056227  0.006492  0.000000     96.000000
  0.078717 -0.006492  0.000000     96.000000
 -0.078717  0.084402  0.000000     96.000000
 -0.056227  0.071417  0.000000     96.000000
 -0.033736  0.058432  0.000000     48.000000
  0.056227  0.032462  0.000000     48.000000
  0.078717  0.019477  0.000000     96.000000
 -0.078717  0.110372  0.000000     96.000000
 -0.056227  0.097387  0.000000     48.000000
  0.078717  0.045447  0.000000     48.000000
 -0.078717  0.136342  0.000000     48.000000
 


--------------------------------------------------------------------------------------------------------




 Dimension of arrays:
   k-points           NKPTS =     20   k-points in BZ     NKDIM =     20   number of bands    NBANDS=    112
   number of dos      NEDOS =    301   number of ions     NIONS =     16
   non local maximal  LDIM  =      6   non local SUM 2l+1 LMDIM =     18
   total plane-waves  NPLWV = 112896
   max r-space proj   IRMAX =      1   max aug-charges    IRDMAX=   8496
   dimension x,y,z NGX =    28 NGY =   28 NGZ =  144
   dimension x,y,z NGXF=    56 NGYF=   56 NGZF=  288
   support grid    NGXF=    56 NGYF=   56 NGZF=  288
   ions per type =              16
   NGX,Y,Z   is equivalent  to a cutoff of   8.38,  8.38,  7.77 a.u.
   NGXF,Y,Z  is equivalent  to a cutoff of  16.75, 16.75, 15.54 a.u.

 SYSTEM =  unknown system                          
 POSCAR =  Pt                                      

 Startparameter for this run:
   NWRITE =      2    write-flag & timer
   PREC   = normal    normal or accurate (medium, high low for compatibility)
   ISTART =      0    job   : 0-new  1-cont  2-samecut
   ICHARG =      2    charge: 1-file 2-atom 10-const
   ISPIN  =      1    spin polarized calculation?
   LNONCOLLINEAR =      F non collinear calculations
   LSORBIT =      F    spin-orbit coupling
   INIWAV =      1    electr: 0-lowe 1-rand  2-diag
   LASPH  =      F    aspherical Exc in radial PAW
   METAGGA=      F    non-selfconsistent MetaGGA calc.

 Electronic Relaxation 1
   ENCUT  =  350.0 eV  25.72 Ry    5.07 a.u.   8.48  8.48 46.99*2*pi/ulx,y,z
   ENINI  =  350.0     initial cutoff
   ENAUG  =  359.0 eV  augmentation charge cutoff
   NELM   =     60;   NELMIN=  2; NELMDL= -5     # of ELM steps 
   EDIFF  = 0.1E-04   stopping-criterion for ELM
   LREAL  =      F    real-space projection
   NLSPLINE    = F    spline interpolate recip. space projectors
   LCOMPAT=      F    compatible to vasp.4.4
   GGA_COMPAT  = T    GGA compatible to vasp.4.4-vasp.4.6
   LMAXPAW     = -100 max onsite density
   LMAXMIX     =    2 max onsite mixed and CHGCAR
   VOSKOWN=      0    Vosko Wilk Nusair interpolation
   ROPT   =    0.00000
 Ionic relaxation
   EDIFFG = -.5E-01   stopping-criterion for IOM
   NSW    =    500    number of steps for IOM
   NBLOCK =      1;   KBLOCK =    500    inner block; outer block 
   IBRION =      2    ionic relax: 0-MD 1-quasi-New 2-CG
   NFREE  =      1    steps in history (QN), initial steepest desc. (CG)
   ISIF   =      2    stress and relaxation
   IWAVPR =     11    prediction:  0-non 1-charg 2-wave 3-comb
   ISYM   =      2    0-nonsym 1-usesym 2-fastsym
   LCORR  =      T    Harris-Foulkes like correction to forces

   POTIM  = 0.5000    time-step for ionic-motion
   TEIN   =    0.0    initial temperature
   TEBEG  =    0.0;   TEEND  =   0.0 temperature during run
   SMASS  =  -3.00    Nose mass-parameter (am)
   estimated Nose-frequenzy (Omega)   =  0.10E-29 period in steps =****** mass=  -0.706E-27a.u.
   SCALEE = 1.0000    scale energy and forces
   NPACO  =    256;   APACO  = 16.0  distance and # of slots for P.C.
   PSTRESS=    0.0 pullay stress

  Mass of Ions in am
   POMASS = 195.08
  Ionic Valenz
   ZVAL   =  10.00
  Atomic Wigner-Seitz radii
   RWIGS  =  -1.00
  virtual crystal weights 
   VCA    =   1.00
   NELECT =     160.0000    total number of electrons
   NUPDOWN=      -1.0000    fix difference up-down

 DOS related values:
   EMIN   =  10.00;   EMAX   =-10.00  energy-range for DOS
   EFERMI =   0.00
   ISMEAR =     1;   SIGMA  =   0.20  broadening in eV -4-tet -1-fermi 0-gaus

 Electronic relaxation 2 (details)
   IALGO  =     38    algorithm
   LDIAG  =      T    sub-space diagonalisation (order eigenvalues)
   LSUBROT=      F    optimize rotation matrix (better conditioning)
   TURBO    =      0    0=normal 1=particle mesh
   IRESTART =      0    0=no restart 2=restart with 2 vectors
   NREBOOT  =      0    no. of reboots
   NMIN     =      0    reboot dimension
   EREF     =   0.00    reference energy to select bands
   IMIX   =      4    mixing-type and parameters
     AMIX     =   0.40;   BMIX     =  1.00
     AMIX_MAG =   1.60;   BMIX_MAG =  1.00
     AMIN     =   0.10
     WC   =   100.;   INIMIX=   1;  MIXPRE=   1;  MAXMIX= -45

 Intra band minimization:
   WEIMIN = 0.0010     energy-eigenvalue tresh-hold
   EBREAK =  0.22E-07  absolut break condition
   DEPER  =   0.30     relativ break condition  

   TIME   =   0.40     timestep for ELM

  volume/ion in A,a.u.               =      51.51       347.59
  Fermi-wavevector in a.u.,A,eV,Ry     =   0.947945  1.791357 12.226201  0.898600
  Thomas-Fermi vector in A             =   2.076087
 
 Write flags
   LWAVE        =      F    write WAVECAR
   LDOWNSAMPLE  =      F    k-point downsampling of WAVECAR
   LCHARG       =      F    write CHGCAR
   LVTOT        =      F    write LOCPOT, total local potential
   LVHAR        =      F    write LOCPOT, Hartree potential only
   LELF         =      F    write electronic localiz. function (ELF)
   LORBIT       =      0    0 simple, 1 ext, 2 COOP (PROOUT), +10 PAW based schemes


 Dipole corrections
   LMONO  =      F    monopole corrections only (constant potential shift)
   LDIPOL =      F    correct potential (dipole corrections)
   IDIPOL =      3    1-x, 2-y, 3-z, 4-all directions 
   EPSILON=  1.0000000 bulk dielectric constant

 Exchange correlation treatment:
   GGA     =    PE    GGA type
   LEXCH   =     8    internal setting for exchange type
   VOSKOWN=      0    Vosko Wilk Nusair interpolation
   LHFCALC =     F    Hartree Fock is set to
   LHFONE  =     F    Hartree Fock one center treatment
   AEXX    =    0.0000 exact exchange contribution

 Linear response parameters
   LEPSILON=     F    determine dielectric tensor
   LRPA    =     F    only Hartree local field effects (RPA)
   LNABLA  =     F    use nabla operator in PAW spheres
   LVEL    =     F    velocity operator in full k-point grid
   LINTERFAST=   F  fast interpolation
   KINTER  =     0    interpolate to denser k-point grid
   CSHIFT  =0.1000    complex shift for real part using Kramers Kronig
   OMEGAMAX=  -1.0    maximum frequency
   DEG_THRESHOLD= 0.2000000E-02 threshold for treating states as degnerate
   RTIME   =   -0.100 relaxation time in fs
  (WPLASMAI=    0.000 imaginary part of plasma frequency in eV, 0.658/RTIME)
   DFIELD  = 0.0000000 0.0000000 0.0000000 field for delta impulse in time
 
 Orbital magnetization related:
   ORBITALMAG=     F  switch on orbital magnetization
   LCHIMAG   =     F  perturbation theory with respect to B field
   DQ        =  0.001000  dq finite difference perturbation B field
   LLRAUG    =     F  two centre corrections for induced B field



--------------------------------------------------------------------------------------------------------


 conjugate gradient relaxation of ions
   using selective dynamics as specified on POSCAR
   WARNING: If single coordinates had been selected the selection of coordinates
            is made according to the corresponding   d i r e c t   coordinates!
            Don't support selection of single cartesian coordinates -- sorry ...
  !
 charge density and potential will be updated during run
 non-spin polarized calculation
 Variant of blocked Davidson
 Davidson routine will perform the subspace rotation
 perform sub-space diagonalisation
    after iterative eigenvector-optimisation
 modified Broyden-mixing scheme, WC =      100.0
 initial mixing is a Kerker type mixing with AMIX =  0.4000 and BMIX =      1.0000
 Hartree-type preconditioning will be used
 using additional bands           32
 reciprocal scheme for non local part
 use partial core corrections
 calculate Harris-corrections to forces 
   (improved forces if not selfconsistent)
 use gradient corrections 
 use of overlap-Matrix (Vanderbilt PP)
 Methfessel and Paxton  Order N= 1 SIGMA  =   0.20


--------------------------------------------------------------------------------------------------------


  energy-cutoff  :      350.00
  volume of cell :      824.13
      direct lattice vectors                 reciprocal lattice vectors
     5.557859300  0.000000000  0.000000000     0.179925390 -0.103879972  0.000000000
     2.778929650  4.813247345  0.000000000     0.000000000  0.207759944  0.000000000
     0.000000000  0.000000000 30.806959674     0.000000000  0.000000000  0.032460198

  length of vectors
     5.557859300  5.557859300 30.806959674     0.207759944  0.207759944  0.032460198


 
 k-points in units of 2pi/SCALE and weight: KPOINTS created by Atomic Simulation Env
   0.01124534  0.00649250  0.00000000       0.031
   0.03373601 -0.00649250  0.00000000       0.062
   0.05622668 -0.01947749  0.00000000       0.062
   0.07871736 -0.03246249  0.00000000       0.062
  -0.07871736  0.05843248  0.00000000       0.062
  -0.05622668  0.04544749  0.00000000       0.062
  -0.03373601  0.03246249  0.00000000       0.062
  -0.01124534  0.01947749  0.00000000       0.031
   0.03373601  0.01947749  0.00000000       0.031
   0.05622668  0.00649250  0.00000000       0.062
   0.07871736 -0.00649250  0.00000000       0.062
  -0.07871736  0.08440248  0.00000000       0.062
  -0.05622668  0.07141748  0.00000000       0.062
  -0.03373601  0.05843248  0.00000000       0.031
   0.05622668  0.03246249  0.00000000       0.031
   0.07871736  0.01947749  0.00000000       0.062
  -0.07871736  0.11037247  0.00000000       0.062
  -0.05622668  0.09738747  0.00000000       0.031
   0.07871736  0.04544749  0.00000000       0.031
  -0.07871736  0.13634246  0.00000000       0.031
 
 k-points in reciprocal lattice and weights: KPOINTS created by Atomic Simulation Env
   0.06250000  0.06250000  0.00000000       0.031
   0.18750000  0.06250000  0.00000000       0.062
   0.31250000  0.06250000  0.00000000       0.062
   0.43750000  0.06250000  0.00000000       0.062
  -0.43750000  0.06250000  0.00000000       0.062
  -0.31250000  0.06250000  0.00000000       0.062
  -0.18750000  0.06250000  0.00000000       0.062
  -0.06250000  0.06250000  0.00000000       0.031
   0.18750000  0.18750000  0.00000000       0.031
   0.31250000  0.18750000  0.00000000       0.062
   0.43750000  0.18750000  0.00000000       0.062
  -0.43750000  0.18750000  0.00000000       0.062
  -0.31250000  0.18750000  0.00000000       0.062
  -0.18750000  0.18750000  0.00000000       0.031
   0.31250000  0.31250000  0.00000000       0.031
   0.43750000  0.31250000  0.00000000       0.062
  -0.43750000  0.31250000  0.00000000       0.062
  -0.31250000  0.31250000  0.00000000       0.031
   0.43750000  0.43750000  0.00000000       0.031
  -0.43750000  0.43750000  0.00000000       0.031
 
 position of ions in fractional coordinates (direct lattice) 
   0.00000000  0.00000000  0.38952237
   0.50000000  0.00000000  0.38952237
   0.00000000  0.50000000  0.38952237
   0.50000000  0.50000000  0.38952237
   0.16666667  0.16666667  0.46317412
   0.66666667  0.16666667  0.46317412
   0.16666667  0.66666667  0.46317412
   0.66666667  0.66666667  0.46317412
   0.83333333  0.33333333  0.53682588
   0.33333333  0.33333333  0.53682588
   0.83333333  0.83333333  0.53682588
   0.33333333  0.83333333  0.53682588
   0.00000000  0.00000000  0.61047763
   0.50000000  0.00000000  0.61047763
   0.00000000  0.50000000  0.61047763
   0.50000000  0.50000000  0.61047763
 
 position of ions in cartesian coordinates  (Angst):
   0.00000000  0.00000000 12.00000000
   2.77892965  0.00000000 12.00000000
   1.38946483  2.40662367 12.00000000
   4.16839448  2.40662367 12.00000000
   1.38946483  0.80220789 14.26898656
   4.16839448  0.80220789 14.26898656
   2.77892965  3.20883156 14.26898656
   5.55785930  3.20883156 14.26898656
   5.55785930  1.60441578 16.53797312
   2.77892965  1.60441578 16.53797312
   6.94732413  4.01103945 16.53797312
   4.16839448  4.01103945 16.53797312
   0.00000000  0.00000000 18.80695967
   2.77892965  0.00000000 18.80695967
   1.38946483  2.40662367 18.80695967
   4.16839448  2.40662367 18.80695967
 


--------------------------------------------------------------------------------------------------------


 k-point  1 :   0.0625 0.0625 0.0000  plane waves:   12325
 k-point  2 :   0.1875 0.0625 0.0000  plane waves:   12294
 k-point  3 :   0.3125 0.0625 0.0000  plane waves:   12263
 k-point  4 :   0.4375 0.0625 0.0000  plane waves:   12221
 k-point  5 :  -0.4375 0.0625 0.0000  plane waves:   12211
 k-point  6 :  -0.3125 0.0625 0.0000  plane waves:   12242
 k-point  7 :  -0.1875 0.0625 0.0000  plane waves:   12280
 k-point  8 :  -0.0625 0.0625 0.0000  plane waves:   12329
 k-point  9 :   0.1875 0.1875 0.0000  plane waves:   12277
 k-point 10 :   0.3125 0.1875 0.0000  plane waves:   12288
 k-point 11 :   0.4375 0.1875 0.0000  plane waves:   12234
 k-point 12 :  -0.4375 0.1875 0.0000  plane waves:   12216
 k-point 13 :  -0.3125 0.1875 0.0000  plane waves:   12215
 k-point 14 :  -0.1875 0.1875 0.0000  plane waves:   12289
 k-point 15 :   0.3125 0.3125 0.0000  plane waves:   12275
 k-point 16 :   0.4375 0.3125 0.0000  plane waves:   12239
 k-point 17 :  -0.4375 0.3125 0.0000  plane waves:   12235
 k-point 18 :  -0.3125 0.3125 0.0000  plane waves:   12232
 k-point 19 :   0.4375 0.4375 0.0000  plane waves:   12200
 k-point 20 :  -0.4375 0.4375 0.0000  plane waves:   12214

 maximum and minimum number of plane-waves per node :     12329    12200

 maximum number of plane-waves:     12329
 maximum index in each direction: 
   IXMAX=    8   IYMAX=    8   IZMAX=   46
   IXMIN=   -8   IYMIN=   -8   IZMIN=  -46


 serial   3D FFT for wavefunctions
 parallel 3D FFT for charge:
    minimum data exchange during FFTs selected (reduces bandwidth)


 total amount of memory used by VASP MPI-rank0    92802. kBytes
=======================================================================

   base      :      30000. kBytes
   nonl-proj :      38723. kBytes
   fftplans  :       1549. kBytes
   grid      :       6083. kBytes
   one-center:        248. kBytes
   wavefun   :      16199. kBytes
 
     INWAV:  cpu time    0.0000: real time    0.0000
 Broyden mixing: mesh for mixing (old mesh)
   NGX = 17   NGY = 17   NGZ = 93
  (NGX  = 56   NGY  = 56   NGZ  =288)
  gives a total of  26877 points

 initial charge density was supplied:
 charge density of overlapping atoms calculated
 number of electron     160.0000000 magnetization 
 keeping initial charge density in first step


--------------------------------------------------------------------------------------------------------


 Maximum index for augmentation-charges          431 (set IRDMAX)


--------------------------------------------------------------------------------------------------------


 First call to EWALD:  gamma=   0.189
 Maximum number of real-space cells 5x 5x 1
 Maximum number of reciprocal cells 2x 2x 8

    FEWALD:  cpu time    0.0012: real time    0.0012


--------------------------------------- Iteration      1(   1)  ---------------------------------------


    POTLOK:  cpu time    0.0238: real time    0.0295
    SETDIJ:  cpu time    0.0029: real time    0.0029
     EDDAV:  cpu time    5.6349: real time    5.6373
       DOS:  cpu time    0.0025: real time    0.0025
    --------------------------------------------
      LOOP:  cpu time    5.6642: real time    5.6723

 eigenvalue-minimisations  :  4480
 total energy-change (2. order) : 0.8875250E+03  (-0.5514833E+04)
 number of electron     160.0000000 magnetization 
 augmentation part      160.0000000 magnetization 

 Free energy of the ion-electron system (eV)
  ---------------------------------------------------
  alpha Z        PSCENC =       295.28085490
  Ewald energy   TEWEN  =    100065.38440864
  -Hartree energ DENC   =   -112103.49633114
  -exchange      EXHF   =         0.00000000
  -V(xc)+E(xc)   XCENC  =        55.36999249
  PAW double counting   =     11137.97656685   -10685.44471970
  entropy T*S    EENTRO =        -0.01493228
  eigenvalues    EBANDS =       456.81780922
  atomic energy  EATOM  =     11665.65139175
  Solvation  Ediel_sol  =         0.00000000
  ---------------------------------------------------
  free energy    TOTEN  =       887.52504072 eV

  energy without entropy =      887.53997301  energy(sigma->0) =      887.53001815


--------------------------------------------------------------------------------------------------------




--------------------------------------- Iteration      1(   2)  ---------------------------------------


     EDDAV:  cpu time    7.1779: real time    7.1797
       DOS:  cpu time    0.0024: real time    0.0024
    --------------------------------------------
      LOOP:  cpu time    7.1803: real time    7.1820

 eigenvalue-minimisations  :  6104
 total energy-change (2. order) :-0.9409204E+03  (-0.8850294E+03)
 number of electron     160.0000000 magnetization 
 augmentation part      160.0000000 magnetization 

 Free energy of the ion-electron system (eV)
  ---------------------------------------------------
  alpha Z        PSCENC =       295.28085490
  Ewald energy   TEWEN  =    100065.38440864
  -Hartree energ DENC   =   -112103.49633114
  -exchange      EXHF   =         0.00000000
  -V(xc)+E(xc)   XCENC  =        55.36999249
  PAW double counting   =     11137.97656685   -10685.44471970
  entropy T*S    EENTRO =        -0.01273941
  eigenvalues    EBANDS =      -484.10477278
  atomic energy  EATOM  =     11665.65139175
  Solvation  Ediel_sol  =         0.00000000
  ---------------------------------------------------
  free energy    TOTEN  =       -53.39534839 eV

  energy without entropy =      -53.38260899  energy(sigma->0) =      -53.39110193


--------------------------------------------------------------------------------------------------------




--------------------------------------- Iteration      1(   3)  ---------------------------------------


     EDDAV:  cpu time    6.7168: real time    6.7181
       DOS:  cpu time    0.0025: real time    0.0025
    --------------------------------------------
      LOOP:  cpu time    6.7193: real time    6.7206

 eigenvalue-minimisations  :  5600
 total energy-change (2. order) :-0.4474341E+02  (-0.4263223E+02)
 number of electron     160.0000000 magnetization 
 augmentation part      160.0000000 magnetization 

 Free energy of the ion-electron system (eV)
  ---------------------------------------------------
  alpha Z        PSCENC =       295.28085490
  Ewald energy   TEWEN  =    100065.38440864
  -Hartree energ DENC   =   -112103.49633114
  -exchange      EXHF   =         0.00000000
  -V(xc)+E(xc)   XCENC  =        55.36999249
  PAW double counting   =     11137.97656685   -10685.44471970
  entropy T*S    EENTRO =        -0.03278509
  eigenvalues    EBANDS =      -528.82814165
  atomic energy  EATOM  =     11665.65139175
  Solvation  Ediel_sol  =         0.00000000
  ---------------------------------------------------
  free energy    TOTEN  =       -98.13876295 eV

  energy without entropy =      -98.10597786  energy(sigma->0) =      -98.12783459


--------------------------------------------------------------------------------------------------------




--------------------------------------- Iteration      1(   4)  ---------------------------------------


     EDDAV:  cpu time    7.0096: real time    7.0181
       DOS:  cpu time    0.0023: real time    0.0023
    --------------------------------------------
      LOOP:  cpu time    7.0119: real time    7.0204

 eigenvalue-minimisations  :  5936
 total energy-change (2. order) :-0.7661041E+00  (-0.7655159E+00)
 number of electron     160.0000000 magnetization 
 augmentation part      160.0000000 magnetization 

 Free energy of the ion-electron system (eV)
  ---------------------------------------------------
  alpha Z        PSCENC =       295.28085490
  Ewald energy   TEWEN  =    100065.38440864
  -Hartree energ DENC   =   -112103.49633114
  -exchange      EXHF   =         0.00000000
  -V(xc)+E(xc)   XCENC  =        55.36999249
  PAW double counting   =     11137.97656685   -10685.44471970
  entropy T*S    EENTRO =        -0.03355539
  eigenvalues    EBANDS =      -529.59347549
  atomic energy  EATOM  =     11665.65139175
  Solvation  Ediel_sol  =         0.00000000
  ---------------------------------------------------
  free energy    TOTEN  =       -98.90486709 eV

  energy without entropy =      -98.87131170  energy(sigma->0) =      -98.89368196


--------------------------------------------------------------------------------------------------------




--------------------------------------- Iteration      1(   5)  ---------------------------------------


     EDDAV:  cpu time    7.3005: real time    7.3020
       DOS:  cpu time    0.0024: real time    0.0024
    CHARGE:  cpu time    0.2057: real time    0.2057
    MIXING:  cpu time    0.0010: real time    0.0011
    --------------------------------------------
      LOOP:  cpu time    7.5096: real time    7.5112

 eigenvalue-minimisations  :  6244
 total energy-change (2. order) :-0.1678896E-01  (-0.1678230E-01)
 number of electron     160.0000016 magnetization 
 augmentation part       46.5581272 magnetization 

 Broyden mixing:
  rms(total) = 0.43740E+01    rms(broyden)= 0.43739E+01
  rms(prec ) = 0.44020E+01
  weight for this iteration     100.00

 Free energy of the ion-electron system (eV)
  ---------------------------------------------------
  alpha Z        PSCENC =       295.28085490
  Ewald energy   TEWEN  =    100065.38440864
  -Hartree energ DENC   =   -112103.49633114
  -exchange      EXHF   =         0.00000000
  -V(xc)+E(xc)   XCENC  =        55.36999249
  PAW double counting   =     11137.97656685   -10685.44471970
  entropy T*S    EENTRO =        -0.03361901
  eigenvalues    EBANDS =      -529.61020083
  atomic energy  EATOM  =     11665.65139175
  Solvation  Ediel_sol  =         0.00000000
  ---------------------------------------------------
  free energy    TOTEN  =       -98.92165605 eV

  energy without entropy =      -98.88803704  energy(sigma->0) =      -98.91044972


--------------------------------------------------------------------------------------------------------




--------------------------------------- Iteration      1(   6)  ---------------------------------------


    POTLOK:  cpu time    0.0210: real time    0.0223
    SETDIJ:  cpu time    0.0028: real time    0.0028
     EDDAV:  cpu time    6.5477: real time    6.5489
       DOS:  cpu time    0.0022: real time    0.0022
    CHARGE:  cpu time    0.2091: real time    0.2092
    MIXING:  cpu time    0.0012: real time    0.0012
    --------------------------------------------
      LOOP:  cpu time    6.7840: real time    6.7867

 eigenvalue-minimisations  :  5460
 total energy-change (2. order) : 0.3901549E+01  (-0.2460128E+01)
 number of electron     159.9999990 magnetization 
 augmentation part       49.1165086 magnetization 

 Broyden mixing:
  rms(total) = 0.30852E+01    rms(broyden)= 0.30852E+01
  rms(prec ) = 0.31608E+01
  weight for this iteration     100.00

 eigenvalues of (default mixing * dielectric matrix)
  average eigenvalue GAMMA=   1.4435
  1.4435

 Free energy of the ion-electron system (eV)
  ---------------------------------------------------
  alpha Z        PSCENC =       295.28085490
  Ewald energy   TEWEN  =    100065.38440864
  -Hartree energ DENC   =   -111909.41370078
  -exchange      EXHF   =         0.00000000
  -V(xc)+E(xc)   XCENC  =        51.27229071
  PAW double counting   =     12368.03971912   -11939.52868705
  entropy T*S    EENTRO =        -0.07392913
  eigenvalues    EBANDS =      -691.63245531
  atomic energy  EATOM  =     11665.65139175
  Solvation  Ediel_sol  =         0.00000000
  ---------------------------------------------------
  free energy    TOTEN  =       -95.02010715 eV

  energy without entropy =      -94.94617802  energy(sigma->0) =      -94.99546411


--------------------------------------------------------------------------------------------------------




--------------------------------------- Iteration      1(   7)  ---------------------------------------


    POTLOK:  cpu time    0.0183: real time    0.0184
    SETDIJ:  cpu time    0.0028: real time    0.0028
     EDDAV:  cpu time    5.8958: real time    5.8967
       DOS:  cpu time    0.0021: real time    0.0021
    CHARGE:  cpu time    0.2066: real time    0.2068
    MIXING:  cpu time    0.0012: real time    0.0012
    --------------------------------------------
      LOOP:  cpu time    6.1267: real time    6.1280

 eigenvalue-minimisations  :  4788
 total energy-change (2. order) :-0.2574261E+02  (-0.1704399E+02)
 number of electron     160.0000035 magnetization 
 augmentation part       48.1160332 magnetization 

 Broyden mixing:
  rms(total) = 0.45001E+01    rms(broyden)= 0.44999E+01
  rms(prec ) = 0.49674E+01
  weight for this iteration     100.00

 eigenvalues of (default mixing * dielectric matrix)
  average eigenvalue GAMMA=   1.2513
  2.2324  0.2702

 Free energy of the ion-electron system (eV)
  ---------------------------------------------------
  alpha Z        PSCENC =       295.28085490
  Ewald energy   TEWEN  =    100065.38440864
  -Hartree energ DENC   =   -112095.27540595
  -exchange      EXHF   =         0.00000000
  -V(xc)+E(xc)   XCENC  =        49.82135872
  PAW double counting   =     13412.16728950   -12995.68808212
  entropy T*S    EENTRO =         0.00992618
  eigenvalues    EBANDS =      -518.11445811
  atomic energy  EATOM  =     11665.65139175
  Solvation  Ediel_sol  =         0.00000000
  ---------------------------------------------------
  free energy    TOTEN  =      -120.76271650 eV

  energy without entropy =     -120.77264268  energy(sigma->0) =     -120.76602523


--------------------------------------------------------------------------------------------------------




--------------------------------------- Iteration      1(   8)  ---------------------------------------


    POTLOK:  cpu time    0.0190: real time    0.0191
    SETDIJ:  cpu time    0.0029: real time    0.0029
     EDDAV:  cpu time    6.3530: real time    6.3546
       DOS:  cpu time    0.0019: real time    0.0019
    CHARGE:  cpu time    0.2006: real time    0.2006
    MIXING:  cpu time    0.0010: real time    0.0010
    --------------------------------------------
      LOOP:  cpu time    6.5784: real time    6.5801

 eigenvalue-minimisations  :  5236
 total energy-change (2. order) : 0.2646144E+02  (-0.4801581E+01)
 number of electron     160.0000020 magnetization 
 augmentation part       50.0220437 magnetization 

 Broyden mixing:
  rms(total) = 0.13015E+01    rms(broyden)= 0.13015E+01
  rms(prec ) = 0.14518E+01
  weight for this iteration     100.00

 eigenvalues of (default mixing * dielectric matrix)
  average eigenvalue GAMMA=   1.1025
  1.8526  1.1342  0.3206

 Free energy of the ion-electron system (eV)
  ---------------------------------------------------
  alpha Z        PSCENC =       295.28085490
  Ewald energy   TEWEN  =    100065.38440864
  -Hartree energ DENC   =   -111921.29744205
  -exchange      EXHF   =         0.00000000
  -V(xc)+E(xc)   XCENC  =        48.90365746
  PAW double counting   =     14289.74044485   -13884.83951485
  entropy T*S    EENTRO =        -0.07254954
  eigenvalues    EBANDS =      -653.05252834
  atomic energy  EATOM  =     11665.65139175
  Solvation  Ediel_sol  =         0.00000000
  ---------------------------------------------------
  free energy    TOTEN  =       -94.30127717 eV

  energy without entropy =      -94.22872763  energy(sigma->0) =      -94.27709399


--------------------------------------------------------------------------------------------------------




--------------------------------------- Iteration      1(   9)  ---------------------------------------


    POTLOK:  cpu time    0.0183: real time    0.0185
    SETDIJ:  cpu time    0.0026: real time    0.0026
     EDDAV:  cpu time    6.3515: real time    6.3527
       DOS:  cpu time    0.0020: real time    0.0020
    CHARGE:  cpu time    0.2296: real time    0.2296
    MIXING:  cpu time    0.0013: real time    0.0013
    --------------------------------------------
      LOOP:  cpu time    6.6052: real time    6.6065

 eigenvalue-minimisations  :  5236
 total energy-change (2. order) : 0.5897570E+00  (-0.3002344E+01)
 number of electron     159.9999995 magnetization 
 augmentation part       49.6682729 magnetization 

 Broyden mixing:
  rms(total) = 0.11929E+01    rms(broyden)= 0.11927E+01
  rms(prec ) = 0.12905E+01
  weight for this iteration     100.00

 eigenvalues of (default mixing * dielectric matrix)
  average eigenvalue GAMMA=   1.1512
  2.4854  1.1245  0.6430  0.3521

 Free energy of the ion-electron system (eV)
  ---------------------------------------------------
  alpha Z        PSCENC =       295.28085490
  Ewald energy   TEWEN  =    100065.38440864
  -Hartree energ DENC   =   -111910.94361695
  -exchange      EXHF   =         0.00000000
  -V(xc)+E(xc)   XCENC  =        49.86649509
  PAW double counting   =     14301.62289440   -13892.83967379
  entropy T*S    EENTRO =        -0.05831040
  eigenvalues    EBANDS =      -667.67596381
  atomic energy  EATOM  =     11665.65139175
  Solvation  Ediel_sol  =         0.00000000
  ---------------------------------------------------
  free energy    TOTEN  =       -93.71152016 eV

  energy without entropy =      -93.65320977  energy(sigma->0) =      -93.69208336


--------------------------------------------------------------------------------------------------------




--------------------------------------- Iteration      1(  10)  ---------------------------------------


    POTLOK:  cpu time    0.0199: real time    0.0200
    SETDIJ:  cpu time    0.0028: real time    0.0028
     EDDAV:  cpu time    6.2104: real time    6.2117
       DOS:  cpu time    0.0019: real time    0.0019
    CHARGE:  cpu time    0.2223: real time    0.2223
    MIXING:  cpu time    0.0018: real time    0.0018
    --------------------------------------------
      LOOP:  cpu time    6.4590: real time    6.4604

 eigenvalue-minimisations  :  5124
 total energy-change (2. order) : 0.9158188E+00  (-0.4213661E+00)
 number of electron     160.0000008 magnetization 
 augmentation part       49.6775582 magnetization 

 Broyden mixing:
  rms(total) = 0.26953E+00    rms(broyden)= 0.26945E+00
  rms(prec ) = 0.29580E+00
  weight for this iteration     100.00

 eigenvalues of (default mixing * dielectric matrix)
  average eigenvalue GAMMA=   0.9580
  2.4439  1.1110  0.6678  0.3534  0.2140

 Free energy of the ion-electron system (eV)
  ---------------------------------------------------
  alpha Z        PSCENC =       295.28085490
  Ewald energy   TEWEN  =    100065.38440864
  -Hartree energ DENC   =   -111918.31981881
  -exchange      EXHF   =         0.00000000
  -V(xc)+E(xc)   XCENC  =        49.57893762
  PAW double counting   =     14576.14210664   -14170.40034588
  entropy T*S    EENTRO =        -0.03279381
  eigenvalues    EBANDS =      -656.08044245
  atomic energy  EATOM  =     11665.65139175
  Solvation  Ediel_sol  =         0.00000000
  ---------------------------------------------------
  free energy    TOTEN  =       -92.79570140 eV

  energy without entropy =      -92.76290760  energy(sigma->0) =      -92.78477014


--------------------------------------------------------------------------------------------------------




--------------------------------------- Iteration      1(  11)  ---------------------------------------


    POTLOK:  cpu time    0.0228: real time    0.0253
    SETDIJ:  cpu time    0.0034: real time    0.0034
     EDDAV:  cpu time    6.9117: real time    6.9132
       DOS:  cpu time    0.0019: real time    0.0019
    CHARGE:  cpu time    0.2145: real time    0.2146
    MIXING:  cpu time    0.0012: real time    0.0012
    --------------------------------------------
      LOOP:  cpu time    7.1554: real time    7.1595

 eigenvalue-minimisations  :  5824
 total energy-change (2. order) :-0.4095727E-01  (-0.1008904E+00)
 number of electron     160.0000008 magnetization 
 augmentation part       49.6660473 magnetization 

 Broyden mixing:
  rms(total) = 0.34436E+00    rms(broyden)= 0.34434E+00
  rms(prec ) = 0.43130E+00
  weight for this iteration     100.00

 eigenvalues of (default mixing * dielectric matrix)
  average eigenvalue GAMMA=   0.8231
  2.4108  1.0955  0.7019  0.3556  0.2909  0.0839

 Free energy of the ion-electron system (eV)
  ---------------------------------------------------
  alpha Z        PSCENC =       295.28085490
  Ewald energy   TEWEN  =    100065.38440864
  -Hartree energ DENC   =   -111920.25311504
  -exchange      EXHF   =         0.00000000
  -V(xc)+E(xc)   XCENC  =        49.58583621
  PAW double counting   =     14544.59322878   -14138.68230145
  entropy T*S    EENTRO =        -0.03435890
  eigenvalues    EBANDS =      -654.36260356
  atomic energy  EATOM  =     11665.65139175
  Solvation  Ediel_sol  =         0.00000000
  ---------------------------------------------------
  free energy    TOTEN  =       -92.83665867 eV

  energy without entropy =      -92.80229977  energy(sigma->0) =      -92.82520571


--------------------------------------------------------------------------------------------------------




--------------------------------------- Iteration      1(  12)  ---------------------------------------


    POTLOK:  cpu time    0.0206: real time    0.0208
    SETDIJ:  cpu time    0.0028: real time    0.0028
     EDDAV:  cpu time    6.4598: real time    6.4611
       DOS:  cpu time    0.0019: real time    0.0019
    CHARGE:  cpu time    0.2118: real time    0.2118
    MIXING:  cpu time    0.0013: real time    0.0013
    --------------------------------------------
      LOOP:  cpu time    6.6982: real time    6.6997

 eigenvalue-minimisations  :  5376
 total energy-change (2. order) : 0.6893952E-01  (-0.5416229E-01)
 number of electron     160.0000009 magnetization 
 augmentation part       49.6528401 magnetization 

 Broyden mixing:
  rms(total) = 0.16232E+00    rms(broyden)= 0.16230E+00
  rms(prec ) = 0.16416E+00
  weight for this iteration     100.00

 eigenvalues of (default mixing * dielectric matrix)
  average eigenvalue GAMMA=   0.8668
  2.4245  1.0110  0.7072  0.7072  0.7898  0.3482  0.0797

 Free energy of the ion-electron system (eV)
  ---------------------------------------------------
  alpha Z        PSCENC =       295.28085490
  Ewald energy   TEWEN  =    100065.38440864
  -Hartree energ DENC   =   -111922.33786381
  -exchange      EXHF   =         0.00000000
  -V(xc)+E(xc)   XCENC  =        49.59866948
  PAW double counting   =     14506.44105455   -14100.31360820
  entropy T*S    EENTRO =        -0.03566819
  eigenvalues    EBANDS =      -652.43695829
  atomic energy  EATOM  =     11665.65139175
  Solvation  Ediel_sol  =         0.00000000
  ---------------------------------------------------
  free energy    TOTEN  =       -92.76771915 eV

  energy without entropy =      -92.73205097  energy(sigma->0) =      -92.75582976


--------------------------------------------------------------------------------------------------------




--------------------------------------- Iteration      1(  13)  ---------------------------------------


    POTLOK:  cpu time    0.0222: real time    0.0335
    SETDIJ:  cpu time    0.0029: real time    0.0029
     EDDAV:  cpu time    7.1126: real time    7.1141
       DOS:  cpu time    0.0018: real time    0.0018
    CHARGE:  cpu time    0.2112: real time    0.2113
    MIXING:  cpu time    0.0024: real time    0.0024
    --------------------------------------------
      LOOP:  cpu time    7.3532: real time    7.3660

 eigenvalue-minimisations  :  6020
 total energy-change (2. order) : 0.7050138E-03  (-0.2105365E-02)
 number of electron     160.0000009 magnetization 
 augmentation part       49.6396634 magnetization 

 Broyden mixing:
  rms(total) = 0.12556E+00    rms(broyden)= 0.12556E+00
  rms(prec ) = 0.13481E+00
  weight for this iteration     100.00

 eigenvalues of (default mixing * dielectric matrix)
  average eigenvalue GAMMA=   0.9537
  2.3521  1.2756  1.2756  0.8384  0.8384  0.3477  0.6210  0.0804

 Free energy of the ion-electron system (eV)
  ---------------------------------------------------
  alpha Z        PSCENC =       295.28085490
  Ewald energy   TEWEN  =    100065.38440864
  -Hartree energ DENC   =   -111924.53575603
  -exchange      EXHF   =         0.00000000
  -V(xc)+E(xc)   XCENC  =        49.63025959
  PAW double counting   =     14444.84034735   -14038.58886633
  entropy T*S    EENTRO =        -0.03603236
  eigenvalues    EBANDS =      -650.39362164
  atomic energy  EATOM  =     11665.65139175
  Solvation  Ediel_sol  =         0.00000000
  ---------------------------------------------------
  free energy    TOTEN  =       -92.76701414 eV

  energy without entropy =      -92.73098177  energy(sigma->0) =      -92.75500335


--------------------------------------------------------------------------------------------------------




--------------------------------------- Iteration      1(  14)  ---------------------------------------


    POTLOK:  cpu time    0.0204: real time    0.0206
    SETDIJ:  cpu time    0.0028: real time    0.0028
     EDDAV:  cpu time    6.5427: real time    6.5463
       DOS:  cpu time    0.0019: real time    0.0019
    CHARGE:  cpu time    0.2091: real time    0.2093
    MIXING:  cpu time    0.0014: real time    0.0014
    --------------------------------------------
      LOOP:  cpu time    6.7783: real time    6.7823

 eigenvalue-minimisations  :  5236
 total energy-change (2. order) :-0.8154838E-03  (-0.7648252E-02)
 number of electron     160.0000009 magnetization 
 augmentation part       49.6220812 magnetization 

 Broyden mixing:
  rms(total) = 0.91303E-01    rms(broyden)= 0.91297E-01
  rms(prec ) = 0.10310E+00
  weight for this iteration     100.00

 eigenvalues of (default mixing * dielectric matrix)
  average eigenvalue GAMMA=   0.9670
  2.1473  2.1473  1.3966  0.7838  0.7838  0.7229  0.3481  0.2927  0.0805

 Free energy of the ion-electron system (eV)
  ---------------------------------------------------
  alpha Z        PSCENC =       295.28085490
  Ewald energy   TEWEN  =    100065.38440864
  -Hartree energ DENC   =   -111927.96232294
  -exchange      EXHF   =         0.00000000
  -V(xc)+E(xc)   XCENC  =        49.67750546
  PAW double counting   =     14370.23071680   -13963.71242920
  entropy T*S    EENTRO =        -0.03625336
  eigenvalues    EBANDS =      -647.28170168
  atomic energy  EATOM  =     11665.65139175
  Solvation  Ediel_sol  =         0.00000000
  ---------------------------------------------------
  free energy    TOTEN  =       -92.76782962 eV

  energy without entropy =      -92.73157626  energy(sigma->0) =      -92.75574517


--------------------------------------------------------------------------------------------------------




--------------------------------------- Iteration      1(  15)  ---------------------------------------


    POTLOK:  cpu time    0.0210: real time    0.0212
    SETDIJ:  cpu time    0.0028: real time    0.0028
     EDDAV:  cpu time    6.5382: real time    6.5396
       DOS:  cpu time    0.0020: real time    0.0020
    CHARGE:  cpu time    0.2105: real time    0.2105
    MIXING:  cpu time    0.0015: real time    0.0015
    --------------------------------------------
      LOOP:  cpu time    6.7761: real time    6.7776

 eigenvalue-minimisations  :  5460
 total energy-change (2. order) : 0.4175503E-02  (-0.2011963E-02)
 number of electron     160.0000009 magnetization 
 augmentation part       49.6116607 magnetization 

 Broyden mixing:
  rms(total) = 0.48487E-01    rms(broyden)= 0.48483E-01
  rms(prec ) = 0.55810E-01
  weight for this iteration     100.00

 eigenvalues of (default mixing * dielectric matrix)
  average eigenvalue GAMMA=   1.0151
  2.4885  2.4885  1.3015  0.8759  0.8759  0.7063  0.7063  0.3477  0.2797  0.0805

 Free energy of the ion-electron system (eV)
  ---------------------------------------------------
  alpha Z        PSCENC =       295.28085490
  Ewald energy   TEWEN  =    100065.38440864
  -Hartree energ DENC   =   -111929.88084272
  -exchange      EXHF   =         0.00000000
  -V(xc)+E(xc)   XCENC  =        49.70463346
  PAW double counting   =     14335.04317424   -13928.36695542
  entropy T*S    EENTRO =        -0.03611582
  eigenvalues    EBANDS =      -645.54420315
  atomic energy  EATOM  =     11665.65139175
  Solvation  Ediel_sol  =         0.00000000
  ---------------------------------------------------
  free energy    TOTEN  =       -92.76365412 eV

  energy without entropy =      -92.72753830  energy(sigma->0) =      -92.75161551


--------------------------------------------------------------------------------------------------------




--------------------------------------- Iteration      1(  16)  ---------------------------------------


    POTLOK:  cpu time    0.0186: real time    0.0188
    SETDIJ:  cpu time    0.0027: real time    0.0027
     EDDAV:  cpu time    6.1234: real time    6.1247
       DOS:  cpu time    0.0018: real time    0.0018
    CHARGE:  cpu time    0.2089: real time    0.2090
    MIXING:  cpu time    0.0027: real time    0.0027
    --------------------------------------------
      LOOP:  cpu time    6.3582: real time    6.3596

 eigenvalue-minimisations  :  5012
 total energy-change (2. order) : 0.1082750E-02  (-0.7217450E-03)
 number of electron     160.0000009 magnetization 
 augmentation part       49.6071147 magnetization 

 Broyden mixing:
  rms(total) = 0.14812E-01    rms(broyden)= 0.14809E-01
  rms(prec ) = 0.15514E-01
  weight for this iteration     100.00

 eigenvalues of (default mixing * dielectric matrix)
  average eigenvalue GAMMA=   1.0504
  2.3795  2.3795  1.5485  1.1341  1.1341  0.8436  0.7139  0.7139  0.3477  0.2795
  0.0805

 Free energy of the ion-electron system (eV)
  ---------------------------------------------------
  alpha Z        PSCENC =       295.28085490
  Ewald energy   TEWEN  =    100065.38440864
  -Hartree energ DENC   =   -111931.08721841
  -exchange      EXHF   =         0.00000000
  -V(xc)+E(xc)   XCENC  =        49.72226669
  PAW double counting   =     14322.41972979   -13915.66192445
  entropy T*S    EENTRO =        -0.03585478
  eigenvalues    EBANDS =      -644.43622550
  atomic energy  EATOM  =     11665.65139175
  Solvation  Ediel_sol  =         0.00000000
  ---------------------------------------------------
  free energy    TOTEN  =       -92.76257137 eV

  energy without entropy =      -92.72671659  energy(sigma->0) =      -92.75061978


--------------------------------------------------------------------------------------------------------




--------------------------------------- Iteration      1(  17)  ---------------------------------------


    POTLOK:  cpu time    0.0210: real time    0.0262
    SETDIJ:  cpu time    0.0028: real time    0.0028
     EDDAV:  cpu time    6.1715: real time    6.1740
       DOS:  cpu time    0.0019: real time    0.0019
    CHARGE:  cpu time    0.2113: real time    0.2113
    MIXING:  cpu time    0.0017: real time    0.0017
    --------------------------------------------
      LOOP:  cpu time    6.4102: real time    6.4180

 eigenvalue-minimisations  :  5068
 total energy-change (2. order) :-0.3974225E-04  (-0.6785859E-04)
 number of electron     160.0000009 magnetization 
 augmentation part       49.6078273 magnetization 

 Broyden mixing:
  rms(total) = 0.10744E-01    rms(broyden)= 0.10743E-01
  rms(prec ) = 0.13738E-01
  weight for this iteration     100.00

 eigenvalues of (default mixing * dielectric matrix)
  average eigenvalue GAMMA=   1.0691
  2.4402  2.4402  1.5586  1.2722  1.2722  0.8466  0.8466  0.7220  0.7220  0.3477
  0.2798  0.0805

 Free energy of the ion-electron system (eV)
  ---------------------------------------------------
  alpha Z        PSCENC =       295.28085490
  Ewald energy   TEWEN  =    100065.38440864
  -Hartree energ DENC   =   -111931.85637404
  -exchange      EXHF   =         0.00000000
  -V(xc)+E(xc)   XCENC  =        49.72596675
  PAW double counting   =     14332.89287333   -13926.13201114
  entropy T*S    EENTRO =        -0.03566284
  eigenvalues    EBANDS =      -643.67405847
  atomic energy  EATOM  =     11665.65139175
  Solvation  Ediel_sol  =         0.00000000
  ---------------------------------------------------
  free energy    TOTEN  =       -92.76261111 eV

  energy without entropy =      -92.72694827  energy(sigma->0) =      -92.75072350


--------------------------------------------------------------------------------------------------------




--------------------------------------- Iteration      1(  18)  ---------------------------------------


    POTLOK:  cpu time    0.0216: real time    0.0218
    SETDIJ:  cpu time    0.0029: real time    0.0029
     EDDAV:  cpu time    5.8753: real time    5.8779
       DOS:  cpu time    0.0019: real time    0.0019
    CHARGE:  cpu time    0.2093: real time    0.2093
    MIXING:  cpu time    0.0017: real time    0.0017
    --------------------------------------------
      LOOP:  cpu time    6.1126: real time    6.1154

 eigenvalue-minimisations  :  4732
 total energy-change (2. order) : 0.7051663E-04  (-0.8648845E-04)
 number of electron     160.0000008 magnetization 
 augmentation part       49.6074023 magnetization 

 Broyden mixing:
  rms(total) = 0.45788E-02    rms(broyden)= 0.45777E-02
  rms(prec ) = 0.50575E-02
  weight for this iteration     100.00

 eigenvalues of (default mixing * dielectric matrix)
  average eigenvalue GAMMA=   1.1119
  2.5152  2.5152  1.6916  1.6916  1.2296  0.9108  0.9108  0.8500  0.7159  0.7159
  0.3477  0.2798  0.0805

 Free energy of the ion-electron system (eV)
  ---------------------------------------------------
  alpha Z        PSCENC =       295.28085490
  Ewald energy   TEWEN  =    100065.38440864
  -Hartree energ DENC   =   -111932.64850654
  -exchange      EXHF   =         0.00000000
  -V(xc)+E(xc)   XCENC  =        49.73079130
  PAW double counting   =     14334.47127215   -13927.70436306
  entropy T*S    EENTRO =        -0.03558133
  eigenvalues    EBANDS =      -642.89280840
  atomic energy  EATOM  =     11665.65139175
  Solvation  Ediel_sol  =         0.00000000
  ---------------------------------------------------
  free energy    TOTEN  =       -92.76254060 eV

  energy without entropy =      -92.72695927  energy(sigma->0) =      -92.75068015


--------------------------------------------------------------------------------------------------------




--------------------------------------- Iteration      1(  19)  ---------------------------------------


    POTLOK:  cpu time    0.0193: real time    0.0194
    SETDIJ:  cpu time    0.0032: real time    0.0032
     EDDAV:  cpu time    5.0634: real time    5.0645
       DOS:  cpu time    0.0025: real time    0.0025
    CHARGE:  cpu time    0.2087: real time    0.2087
    MIXING:  cpu time    0.0018: real time    0.0018
    --------------------------------------------
      LOOP:  cpu time    5.2988: real time    5.3000

 eigenvalue-minimisations  :  3752
 total energy-change (2. order) :-0.1237271E-04  (-0.3335974E-05)
 number of electron     160.0000008 magnetization 
 augmentation part       49.6076175 magnetization 

 Broyden mixing:
  rms(total) = 0.25144E-02    rms(broyden)= 0.25144E-02
  rms(prec ) = 0.27198E-02
  weight for this iteration     100.00

 eigenvalues of (default mixing * dielectric matrix)
  average eigenvalue GAMMA=   1.1767
  2.6309  2.5746  2.5746  1.5346  1.2344  1.2344  0.8863  0.8863  0.7901  0.7099
  0.7099  0.3477  0.2798  0.0805

 Free energy of the ion-electron system (eV)
  ---------------------------------------------------
  alpha Z        PSCENC =       295.28085490
  Ewald energy   TEWEN  =    100065.38440864
  -Hartree energ DENC   =   -111933.19966341
  -exchange      EXHF   =         0.00000000
  -V(xc)+E(xc)   XCENC  =        49.73215865
  PAW double counting   =     14336.72368186   -13929.95779422
  entropy T*S    EENTRO =        -0.03558315
  eigenvalues    EBANDS =      -642.34200799
  atomic energy  EATOM  =     11665.65139175
  Solvation  Ediel_sol  =         0.00000000
  ---------------------------------------------------
  free energy    TOTEN  =       -92.76255297 eV

  energy without entropy =      -92.72696982  energy(sigma->0) =      -92.75069192


--------------------------------------------------------------------------------------------------------




--------------------------------------- Iteration      1(  20)  ---------------------------------------


    POTLOK:  cpu time    0.0181: real time    0.0182
    SETDIJ:  cpu time    0.0026: real time    0.0026
     EDDAV:  cpu time    4.8053: real time    4.8063
       DOS:  cpu time    0.0017: real time    0.0017
    CHARGE:  cpu time    0.2101: real time    0.2103
    MIXING:  cpu time    0.0022: real time    0.0022
    --------------------------------------------
      LOOP:  cpu time    5.0401: real time    5.0414

 eigenvalue-minimisations  :  3444
 total energy-change (2. order) :-0.2732802E-04  (-0.1162271E-05)
 number of electron     160.0000009 magnetization 
 augmentation part       49.6079866 magnetization 

 Broyden mixing:
  rms(total) = 0.16555E-02    rms(broyden)= 0.16555E-02
  rms(prec ) = 0.18972E-02
  weight for this iteration     100.00

 eigenvalues of (default mixing * dielectric matrix)
  average eigenvalue GAMMA=   1.2429
  2.7118  2.7118  2.4476  2.4476  1.2566  1.1365  1.1365  0.9106  0.9106  0.8357
  0.7150  0.7150  0.3477  0.2798  0.0805

 Free energy of the ion-electron system (eV)
  ---------------------------------------------------
  alpha Z        PSCENC =       295.28085490
  Ewald energy   TEWEN  =    100065.38440864
  -Hartree energ DENC   =   -111933.78011806
  -exchange      EXHF   =         0.00000000
  -V(xc)+E(xc)   XCENC  =        49.73279851
  PAW double counting   =     14339.14332073   -13932.38365934
  entropy T*S    EENTRO =        -0.03558096
  eigenvalues    EBANDS =      -641.75599647
  atomic energy  EATOM  =     11665.65139175
  Solvation  Ediel_sol  =         0.00000000
  ---------------------------------------------------
  free energy    TOTEN  =       -92.76258030 eV

  energy without entropy =      -92.72699933  energy(sigma->0) =      -92.75071998


--------------------------------------------------------------------------------------------------------




--------------------------------------- Iteration      1(  21)  ---------------------------------------


    POTLOK:  cpu time    0.0206: real time    0.0222
    SETDIJ:  cpu time    0.0028: real time    0.0029
     EDDAV:  cpu time    4.8095: real time    4.8112
       DOS:  cpu time    0.0020: real time    0.0020
    CHARGE:  cpu time    0.2101: real time    0.2101
    MIXING:  cpu time    0.0031: real time    0.0031
    --------------------------------------------
      LOOP:  cpu time    5.0481: real time    5.0514

 eigenvalue-minimisations  :  3472
 total energy-change (2. order) :-0.3171409E-04  (-0.1105662E-05)
 number of electron     160.0000009 magnetization 
 augmentation part       49.6079351 magnetization 

 Broyden mixing:
  rms(total) = 0.38629E-03    rms(broyden)= 0.38592E-03
  rms(prec ) = 0.44716E-03
  weight for this iteration     100.00

 eigenvalues of (default mixing * dielectric matrix)
  average eigenvalue GAMMA=   1.2983
  3.1131  3.1131  2.5364  2.5364  1.3310  1.2660  1.2660  0.9113  0.9113  0.7147
  0.7147  0.8258  0.8258  0.3477  0.2798  0.0805

 Free energy of the ion-electron system (eV)
  ---------------------------------------------------
  alpha Z        PSCENC =       295.28085490
  Ewald energy   TEWEN  =    100065.38440864
  -Hartree energ DENC   =   -111934.24026990
  -exchange      EXHF   =         0.00000000
  -V(xc)+E(xc)   XCENC  =        49.73321480
  PAW double counting   =     14337.61224583   -13930.85567995
  entropy T*S    EENTRO =        -0.03560749
  eigenvalues    EBANDS =      -641.29317059
  atomic energy  EATOM  =     11665.65139175
  Solvation  Ediel_sol  =         0.00000000
  ---------------------------------------------------
  free energy    TOTEN  =       -92.76261201 eV

  energy without entropy =      -92.72700452  energy(sigma->0) =      -92.75074285


--------------------------------------------------------------------------------------------------------




--------------------------------------- Iteration      1(  22)  ---------------------------------------


    POTLOK:  cpu time    0.0210: real time    0.0211
    SETDIJ:  cpu time    0.0027: real time    0.0027
     EDDAV:  cpu time    4.6452: real time    4.6461
       DOS:  cpu time    0.0017: real time    0.0017
    CHARGE:  cpu time    0.2099: real time    0.2100
    MIXING:  cpu time    0.0022: real time    0.0022
    --------------------------------------------
      LOOP:  cpu time    4.8827: real time    4.8839

 eigenvalue-minimisations  :  3304
 total energy-change (2. order) :-0.2828809E-04  (-0.3230987E-06)
 number of electron     160.0000009 magnetization 
 augmentation part       49.6079849 magnetization 

 Broyden mixing:
  rms(total) = 0.72512E-03    rms(broyden)= 0.72502E-03
  rms(prec ) = 0.83136E-03
  weight for this iteration     100.00

 eigenvalues of (default mixing * dielectric matrix)
  average eigenvalue GAMMA=   1.3501
  4.3802  2.6671  2.4987  2.4987  1.4845  1.4845  1.2540  0.9182  0.9182  0.9635
  0.9635  0.7139  0.7139  0.7848  0.3477  0.2798  0.0805

 Free energy of the ion-electron system (eV)
  ---------------------------------------------------
  alpha Z        PSCENC =       295.28085490
  Ewald energy   TEWEN  =    100065.38440864
  -Hartree energ DENC   =   -111934.60913041
  -exchange      EXHF   =         0.00000000
  -V(xc)+E(xc)   XCENC  =        49.73348891
  PAW double counting   =     14337.60190638   -13930.84795921
  entropy T*S    EENTRO =        -0.03561201
  eigenvalues    EBANDS =      -640.92198925
  atomic energy  EATOM  =     11665.65139175
  Solvation  Ediel_sol  =         0.00000000
  ---------------------------------------------------
  free energy    TOTEN  =       -92.76264030 eV

  energy without entropy =      -92.72702829  energy(sigma->0) =      -92.75076963


--------------------------------------------------------------------------------------------------------




--------------------------------------- Iteration      1(  23)  ---------------------------------------


    POTLOK:  cpu time    0.0215: real time    0.0297
    SETDIJ:  cpu time    0.0028: real time    0.0028
     EDDAV:  cpu time    4.5101: real time    4.5110
       DOS:  cpu time    0.0024: real time    0.0024
    CHARGE:  cpu time    0.2089: real time    0.2088
    MIXING:  cpu time    0.0028: real time    0.0028
    --------------------------------------------
      LOOP:  cpu time    4.7485: real time    4.7576

 eigenvalue-minimisations  :  3136
 total energy-change (2. order) :-0.1867238E-04  (-0.1087136E-06)
 number of electron     160.0000009 magnetization 
 augmentation part       49.6078912 magnetization 

 Broyden mixing:
  rms(total) = 0.51285E-03    rms(broyden)= 0.51278E-03
  rms(prec ) = 0.57494E-03
  weight for this iteration     100.00

 eigenvalues of (default mixing * dielectric matrix)
  average eigenvalue GAMMA=   1.4328
  5.2914  2.8612  2.4733  2.4733  2.1780  1.3688  1.3688  1.0633  1.0633  0.9109
  0.9109  0.7141  0.7141  0.8460  0.8460  0.3477  0.2798  0.0805

 Free energy of the ion-electron system (eV)
  ---------------------------------------------------
  alpha Z        PSCENC =       295.28085490
  Ewald energy   TEWEN  =    100065.38440864
  -Hartree energ DENC   =   -111934.84151811
  -exchange      EXHF   =         0.00000000
  -V(xc)+E(xc)   XCENC  =        49.73397146
  PAW double counting   =     14337.56748331   -13930.81303735
  entropy T*S    EENTRO =        -0.03560862
  eigenvalues    EBANDS =      -640.69060495
  atomic energy  EATOM  =     11665.65139175
  Solvation  Ediel_sol  =         0.00000000
  ---------------------------------------------------
  free energy    TOTEN  =       -92.76265897 eV

  energy without entropy =      -92.72705035  energy(sigma->0) =      -92.75078943


--------------------------------------------------------------------------------------------------------




--------------------------------------- Iteration      1(  24)  ---------------------------------------


    POTLOK:  cpu time    0.0222: real time    0.0223
    SETDIJ:  cpu time    0.0032: real time    0.0032
     EDDAV:  cpu time    4.5775: real time    4.5783
       DOS:  cpu time    0.0018: real time    0.0018
    CHARGE:  cpu time    0.2124: real time    0.2124
    MIXING:  cpu time    0.0023: real time    0.0023
    --------------------------------------------
      LOOP:  cpu time    4.8193: real time    4.8202

 eigenvalue-minimisations  :  3220
 total energy-change (2. order) :-0.1328244E-04  (-0.1082164E-06)
 number of electron     160.0000009 magnetization 
 augmentation part       49.6078374 magnetization 

 Broyden mixing:
  rms(total) = 0.23742E-03    rms(broyden)= 0.23724E-03
  rms(prec ) = 0.25538E-03
  weight for this iteration     100.00

 eigenvalues of (default mixing * dielectric matrix)
  average eigenvalue GAMMA=   1.5080
  6.0113  2.7329  2.7329  2.6171  2.6171  1.5241  1.5241  1.2069  1.0222  1.0222
  0.9095  0.9095  0.7141  0.7141  0.8477  0.8374  0.3477  0.2798  0.0805

 Free energy of the ion-electron system (eV)
  ---------------------------------------------------
  alpha Z        PSCENC =       295.28085490
  Ewald energy   TEWEN  =    100065.38440864
  -Hartree energ DENC   =   -111935.02384014
  -exchange      EXHF   =         0.00000000
  -V(xc)+E(xc)   XCENC  =        49.73430143
  PAW double counting   =     14337.61612876   -13930.86092448
  entropy T*S    EENTRO =        -0.03560383
  eigenvalues    EBANDS =      -640.50938929
  atomic energy  EATOM  =     11665.65139175
  Solvation  Ediel_sol  =         0.00000000
  ---------------------------------------------------
  free energy    TOTEN  =       -92.76267225 eV

  energy without entropy =      -92.72706842  energy(sigma->0) =      -92.75080431


--------------------------------------------------------------------------------------------------------




--------------------------------------- Iteration      1(  25)  ---------------------------------------


    POTLOK:  cpu time    0.0206: real time    0.0208
    SETDIJ:  cpu time    0.0027: real time    0.0027
     EDDAV:  cpu time    4.5896: real time    4.5905
       DOS:  cpu time    0.0020: real time    0.0020
    --------------------------------------------
      LOOP:  cpu time    4.6149: real time    4.6159

 eigenvalue-minimisations  :  3220
 total energy-change (2. order) :-0.8300272E-05  (-0.9425115E-07)
 number of electron     160.0000009 magnetization 
 augmentation part       49.6078374 magnetization 

 Free energy of the ion-electron system (eV)
  ---------------------------------------------------
  alpha Z        PSCENC =       295.28085490
  Ewald energy   TEWEN  =    100065.38440864
  -Hartree energ DENC   =   -111935.11238640
  -exchange      EXHF   =         0.00000000
  -V(xc)+E(xc)   XCENC  =        49.73457271
  PAW double counting   =     14337.53659474   -13930.78007137
  entropy T*S    EENTRO =        -0.03559822
  eigenvalues    EBANDS =      -640.42244729
  atomic energy  EATOM  =     11665.65139175
  Solvation  Ediel_sol  =         0.00000000
  ---------------------------------------------------
  free energy    TOTEN  =       -92.76268055 eV

  energy without entropy =      -92.72708233  energy(sigma->0) =      -92.75081448


--------------------------------------------------------------------------------------------------------




 average (electrostatic) potential at core
  the test charge radii are     1.2059
  (the norm of the test charge is              1.0000)
       1 -74.4324       2 -74.4324       3 -74.4324       4 -74.4324       5 -74.9034
       6 -74.9034       7 -74.9034       8 -74.9034       9 -74.9034      10 -74.9034
      11 -74.9034      12 -74.9034      13 -74.4324      14 -74.4324      15 -74.4324
      16 -74.4324
 
 
 
 E-fermi :  -0.7739     XC(G=0):  -4.5985     alpha+bet : -4.8644


 k-point     1 :       0.0625    0.0625    0.0000
  band No.  band energies     occupation 
      1     -10.2951      2.00000
      2      -8.9659      2.00000
      3      -7.8164      2.00000
      4      -7.7645      2.00000
      5      -7.5571      2.00000
      6      -7.5328      2.00000
      7      -7.5328      2.00000
      8      -7.3938      2.00000
      9      -7.3795      2.00000
     10      -7.3795      2.00000
     11      -6.9349      2.00000
     12      -6.9338      2.00000
     13      -6.9338      2.00000
     14      -6.6855      2.00000
     15      -6.6590      2.00000
     16      -6.6590      2.00000
     17      -6.5642      2.00000
     18      -6.5514      2.00000
     19      -6.5514      2.00000
     20      -5.7728      2.00000
     21      -5.7728      2.00000
     22      -5.7713      2.00000
     23      -4.7461      2.00000
     24      -4.7461      2.00000
     25      -4.7291      2.00000
     26      -4.5912      2.00000
     27      -4.5912      2.00000
     28      -4.5835      2.00000
     29      -4.5794      2.00000
     30      -4.4706      2.00000
     31      -4.4220      2.00000
     32      -4.3753      2.00000
     33      -4.2750      2.00000
     34      -4.2260      2.00000
     35      -4.1205      2.00000
     36      -4.1205      2.00000
     37      -4.1172      2.00000
     38      -3.9009      2.00000
     39      -3.8575      2.00000
     40      -3.8068      2.00000
     41      -3.7539      2.00000
     42      -3.5423      2.00000
     43      -3.4989      2.00000
     44      -3.4893      2.00000
     45      -3.4893      2.00000
     46      -3.1129      2.00000
     47      -3.1129      2.00000
     48      -3.0042      2.00000
     49      -2.8897      2.00000
     50      -2.8003      2.00000
     51      -2.8003      2.00000
     52      -2.3537      2.00000
     53      -2.3473      2.00000
     54      -1.9895      2.00000
     55      -1.9664      2.00000
     56      -1.7264      2.00000
     57      -1.7264      2.00000
     58      -1.7000      2.00000
     59      -1.5519      2.00000
     60      -1.5496      2.00000
     61      -1.5496      2.00000
     62      -1.5275      2.00000
     63      -1.2444      2.00437
     64      -1.0865      2.04955
     65      -1.0865      2.04955
     66      -1.0401      2.06792
     67      -1.0001      2.06783
     68      -0.9027      1.87733
     69      -0.9027      1.87733
     70      -0.8889      1.81711
     71      -0.8407      1.53194
     72      -0.7687      0.95570
     73      -0.7539      0.83139
     74      -0.7539      0.83139
     75      -0.7095      0.48499
     76      -0.5442     -0.06894
     77      -0.5442     -0.06894
     78      -0.5248     -0.07078
     79      -0.3318     -0.00764
     80      -0.3318     -0.00764
     81      -0.2782     -0.00254
     82      -0.2782     -0.00254
     83      -0.2643     -0.00186
     84      -0.2292     -0.00081
     85      -0.0313     -0.00000
     86       0.1397     -0.00000
     87       0.3740     -0.00000
     88       0.3740     -0.00000
     89       1.2476     -0.00000
     90       1.5831     -0.00000
     91       1.6860     -0.00000
     92       1.6860     -0.00000
     93       1.8294     -0.00000
     94       1.8294     -0.00000
     95       2.6467     -0.00000
     96       2.6467     -0.00000
     97       2.9599     -0.00000
     98       4.6508     -0.00000
     99       4.7268      0.00000
    100       5.1682      0.00000
    101       5.1700      0.00000
    102       5.1934      0.00000
    103       5.1934      0.00000
    104       5.3647      0.00000
    105       5.3647      0.00000
    106       5.3940      0.00000
[...]
     23      -5.1657      2.00000
     24      -5.0444      2.00000
     25      -5.0444      2.00000
     26      -5.0014      2.00000
     27      -4.9240      2.00000
     28      -4.7482      2.00000
     29      -4.6468      2.00000
     30      -4.6468      2.00000
     31      -4.5025      2.00000
     32      -4.4619      2.00000
     33      -4.4619      2.00000
     34      -4.3200      2.00000
     35      -4.2428      2.00000
     36      -4.0622      2.00000
     37      -4.0542      2.00000
     38      -3.8088      2.00000
     39      -3.8088      2.00000
     40      -3.6848      2.00000
     41      -3.6848      2.00000
     42      -3.6624      2.00000
     43      -3.6303      2.00000
     44      -3.6229      2.00000
     45      -3.6229      2.00000
     46      -3.6097      2.00000
     47      -3.5848      2.00000
     48      -3.4663      2.00000
     49      -3.4663      2.00000
     50      -3.4154      2.00000
     51      -3.3818      2.00000
     52      -3.2456      2.00000
     53      -3.2023      2.00000
     54      -2.9292      2.00000
     55      -2.9292      2.00000
     56      -2.9041      2.00000
     57      -2.8193      2.00000
     58      -2.7507      2.00000
     59      -2.6463      2.00000
     60      -2.4879      2.00000
     61      -2.4633      2.00000
     62      -2.3260      2.00000
     63      -2.2991      2.00000
     64      -2.2991      2.00000
     65      -2.1685      2.00000
     66      -2.1685      2.00000
     67      -2.1130      2.00000
     68      -2.0673      2.00000
     69      -1.9353      2.00000
     70      -1.9353      2.00000
     71      -1.9029      2.00000
     72      -1.9006      2.00000
     73      -1.7947      2.00000
     74      -1.6593      2.00000
     75      -1.2934      2.00307
     76      -1.2817      2.00393
     77      -1.1251      2.04665
     78      -1.1251      2.04665
     79      -0.7711      0.70743
     80      -0.7566      0.59372
     81      -0.7500      0.54413
     82      -0.7500      0.54413
     83      -0.7330      0.42400
     84      -0.4866     -0.04631
     85      -0.4866     -0.04631
     86      -0.3260     -0.00356
     87       1.2160     -0.00000
     88       1.2893     -0.00000
     89       1.2893     -0.00000
     90       1.7967     -0.00000
     91       1.7967     -0.00000
     92       1.8362     -0.00000
     93       2.8818     -0.00000
     94       2.8818     -0.00000
     95       3.3316     -0.00000
     96       4.4218     -0.00000
     97       4.7040      0.00000
     98       4.7040      0.00000
     99       5.5925      0.00000
    100       5.9871      0.00000
    101       6.1828      0.00000
    102       6.1828      0.00000
    103       6.2125      0.00000
    104       6.3945      0.00000
    105       6.5843      0.00000
    106       6.8103      0.00000
    107       6.9439      0.00000
    108       6.9439      0.00000
    109       7.1924      0.00000
    110       7.3522      0.00000
    111       7.4894      0.00000
    112       7.4901      0.00000

 k-point    20 :      -0.4375    0.4375    0.0000
  band No.  band energies     occupation 
      1      -8.2635      2.00000
      2      -8.2635      2.00000
      3      -7.2228      2.00000
      4      -7.2228      2.00000
      5      -6.8002      2.00000
      6      -6.4577      2.00000
      7      -6.4465      2.00000
      8      -6.4465      2.00000
      9      -6.3262      2.00000
     10      -6.2087      2.00000
     11      -6.1280      2.00000
     12      -6.1280      2.00000
     13      -6.0953      2.00000
     14      -5.9059      2.00000
     15      -5.6813      2.00000
     16      -5.6813      2.00000
     17      -5.6720      2.00000
     18      -5.5885      2.00000
     19      -5.4540      2.00000
     20      -5.4070      2.00000
     21      -5.2134      2.00000
     22      -5.1750      2.00000
     23      -5.1167      2.00000
     24      -5.1167      2.00000
     25      -5.0770      2.00000
     26      -5.0165      2.00000
     27      -5.0165      2.00000
     28      -4.9974      2.00000
     29      -4.6800      2.00000
     30      -4.5776      2.00000
     31      -4.5074      2.00000
     32      -4.4489      2.00000
     33      -4.4489      2.00000
     34      -4.4099      2.00000
     35      -4.2670      2.00000
     36      -4.2670      2.00000
     37      -4.1056      2.00000
     38      -4.0704      2.00000
     39      -4.0443      2.00000
     40      -4.0443      2.00000
     41      -3.7851      2.00000
     42      -3.7335      2.00000
     43      -3.7335      2.00000
     44      -3.6485      2.00000
     45      -3.6420      2.00000
     46      -3.6343      2.00000
     47      -3.6343      2.00000
     48      -3.5900      2.00000
     49      -3.5871      2.00000
     50      -3.4958      2.00000
     51      -3.2931      2.00000
     52      -3.2931      2.00000
     53      -2.9919      2.00000
     54      -2.9182      2.00000
     55      -2.8940      2.00000
     56      -2.8940      2.00000
     57      -2.8048      2.00000
     58      -2.8048      2.00000
     59      -2.5899      2.00000
     60      -2.5899      2.00000
     61      -2.4021      2.00000
     62      -2.3624      2.00000
     63      -2.3381      2.00000
     64      -2.1968      2.00000
     65      -2.1968      2.00000
     66      -2.1379      2.00000
     67      -2.0303      2.00000
     68      -2.0303      2.00000
     69      -2.0028      2.00000
     70      -1.8784      2.00000
     71      -1.8784      2.00000
     72      -1.7226      2.00000
     73      -1.6922      2.00000
     74      -1.6922      2.00000
     75      -1.3406      2.00104
     76      -1.3406      2.00104
     77      -1.2076      2.01564
     78      -1.1062      2.05532
     79      -0.8977      1.69147
     80      -0.8977      1.69147
     81      -0.8886      1.63597
     82      -0.7936      0.89345
     83      -0.6391      0.00281
     84      -0.6066     -0.04981
     85      -0.3982     -0.01401
     86      -0.3982     -0.01401
     87       0.2614     -0.00000
     88       0.5077     -0.00000
     89       1.5009     -0.00000
     90       1.6124     -0.00000
     91       1.6124     -0.00000
     92       2.3824     -0.00000
     93       3.2068     -0.00000
     94       3.4706     -0.00000
     95       4.0265     -0.00000
     96       4.0265     -0.00000
     97       4.4167     -0.00000
     98       5.3065      0.00000
     99       5.5840      0.00000
    100       5.9407      0.00000
    101       5.9407      0.00000
    102       6.1168      0.00000
    103       6.4549      0.00000
    104       6.4549      0.00000
    105       6.4715      0.00000
    106       6.8556      0.00000
    107       6.8556      0.00000
    108       6.8715      0.00000
    109       7.0063      0.00000
    110       7.0063      0.00000
    111       7.4509      0.00000
    112       7.7533      0.00000


--------------------------------------------------------------------------------------------------------


 soft charge-density along one line, spin component           1
         0         1         2         3         4         5         6         7         8         9
 total charge-density along one line
 
 pseudopotential strength for first ion, spin component:           1
 -6.900   0.000   0.000  -0.011   0.000  -6.991   0.000   0.000
  0.000  -6.779  -0.000   0.000  -0.011   0.000  -6.874  -0.000
  0.000  -0.000  -6.772  -0.000   0.000   0.000  -0.000  -6.867
 -0.011   0.000  -0.000  -6.779   0.000  -0.011   0.000  -0.000
  0.000  -0.011   0.000   0.000  -6.900   0.000  -0.011   0.000
 -6.991   0.000   0.000  -0.011   0.000  -7.066   0.000   0.000
  0.000  -6.874  -0.000   0.000  -0.011   0.000  -6.952  -0.000
  0.000  -0.000  -6.867  -0.000   0.000   0.000  -0.000  -6.946
 -0.011   0.000  -0.000  -6.874   0.000  -0.011   0.000  -0.000
  0.000  -0.011   0.000   0.000  -6.991   0.000  -0.011   0.000
  0.000  -0.000  -0.037  -0.000   0.000   0.000  -0.000  -0.036
  0.000  -0.000  -0.055  -0.000   0.000   0.000  -0.000  -0.054
 -0.000  -0.003   0.000  -0.000   0.000  -0.000  -0.002   0.000
 -0.000   0.000  -0.007   0.000  -0.000  -0.000   0.000  -0.007
  0.000  -0.000   0.000  -0.003  -0.000   0.000  -0.000   0.000
 -0.000  -0.001   0.000  -0.000   0.001  -0.000  -0.001   0.000
 -0.000   0.000  -0.007   0.000  -0.000  -0.000   0.000  -0.007
  0.001  -0.000   0.000  -0.001  -0.000   0.001  -0.000   0.000
 total augmentation occupancy for first ion, spin component:           1
  3.086   0.000  -0.000  -0.214   0.000  -2.046  -0.000   0.000   0.044   0.000   0.000   0.000   0.000   0.000  -0.049  -0.000
  0.000   3.980   0.000   0.000  -0.214  -0.000  -2.151  -0.000  -0.000   0.052   0.000  -0.000  -0.251   0.000  -0.000   0.013
 -0.000   0.000   4.210   0.000  -0.000   0.000  -0.000  -2.634  -0.000   0.000   0.872  -0.146   0.000  -0.305   0.000  -0.000
 -0.214   0.000   0.000   3.980  -0.000   0.052  -0.000  -0.000  -2.151   0.000   0.000   0.000  -0.000   0.000  -0.251   0.000
  0.000  -0.214  -0.000  -0.000   3.086  -0.000   0.044   0.000   0.000  -2.046  -0.000   0.000  -0.049   0.000  -0.000   0.003
 -2.046  -0.000   0.000   0.052   0.000   2.634  -0.000  -0.000   0.070  -0.000   0.000  -0.000  -0.000  -0.000   0.048   0.000
 -0.000  -2.151  -0.000  -0.000   0.044  -0.000   2.158  -0.000   0.000   0.070   0.000  -0.000   0.238  -0.000   0.000  -0.016
  0.000  -0.000  -2.634  -0.000   0.000  -0.000  -0.000   2.828   0.000  -0.000  -0.755   0.100  -0.000   0.360  -0.000   0.000
  0.044  -0.000  -0.000  -2.151   0.000   0.070   0.000  -0.000   2.158   0.000   0.000  -0.000   0.000  -0.000   0.238  -0.000
  0.000   0.052   0.000   0.000  -2.046   0.000   0.070  -0.000   0.000   2.634   0.000  -0.000   0.048  -0.000   0.000  -0.003
  0.000  -0.000   0.872  -0.000  -0.000  -0.000  -0.000  -0.755   0.000   0.000   2.283  -0.458   0.000   0.181  -0.000   0.000
  0.000   0.000  -0.146   0.000   0.000  -0.000  -0.000   0.100  -0.000  -0.000  -0.458   0.114  -0.000  -0.065   0.000   0.000
  0.000  -0.251   0.000  -0.000  -0.049  -0.000   0.238  -0.000   0.000   0.048   0.000   0.000   0.272   0.000   0.000  -0.014
  0.000  -0.000  -0.305   0.000   0.000  -0.000  -0.000   0.360  -0.000  -0.000   0.181  -0.065  -0.000   0.148  -0.000  -0.000
 -0.049  -0.000   0.000  -0.251  -0.000   0.048   0.000  -0.000   0.238   0.000  -0.000   0.000   0.000  -0.000   0.272  -0.000
 -0.000   0.013  -0.000   0.000   0.003   0.000  -0.016   0.000  -0.000  -0.003   0.000   0.000  -0.014   0.000  -0.000   0.001
 -0.000  -0.000   0.005  -0.000  -0.000   0.000  -0.000  -0.019  -0.000   0.000  -0.017   0.005   0.000  -0.009   0.000   0.000
  0.003   0.000  -0.000   0.013   0.000  -0.003  -0.000   0.000  -0.016  -0.000   0.000  -0.000  -0.000   0.000  -0.014   0.000


------------------------ aborting loop because EDIFF is reached ----------------------------------------



 DIPCOR: dipole corrections for dipol
 direction  3 min pos   277,
 dipolmoment           0.000000      0.000000      0.000645 electrons x Angstroem
 Tr[quadrupol]      -949.832767

 energy correction for charged system         0.000000 eV
 dipol+quadrupol energy correction            0.000000 eV
 added-field ion interaction          0.000000 eV  (added to PSCEN)

 
  *************** adding dipol energy to TOTEN NOW **************** 
    CHARGE:  cpu time    0.2059: real time    0.2060
    FORLOC:  cpu time    0.0024: real time    0.0024
    FORNL :  cpu time    1.7190: real time    1.7192
    STRESS:  cpu time    3.9316: real time    3.9325
    FORCOR:  cpu time    0.0189: real time    0.0190
    FORHAR:  cpu time    0.0066: real time    0.0066
    MIXING:  cpu time    0.0015: real time    0.0015
    OFIELD:  cpu time    0.0000: real time    0.0000

  FORCE on cell =-STRESS in cart. coord.  units (eV):
  Direction    XX          YY          ZZ          XY          YZ          ZX
  --------------------------------------------------------------------------------------
  Alpha Z   295.28085   295.28085   295.28085
  Ewald  107316.23751107316.23751************     0.00000    -0.00000    -0.00000
  Hartree109619.09761109619.09761************    -0.00000     0.00000     0.00000
  E(xc)    -707.85037  -707.85038  -712.92557     0.00001    -0.00000    -0.00001
  Local  ************************222246.56713     0.00109    -0.00004    -0.00008
  n-local   114.91138    39.02037    57.44680   -21.32700    -4.84972     2.57942
  augment   831.21964   831.22058   863.48102    -0.00081     0.00000     0.00000
  Kinetic  2312.16693  2287.77023  2379.93353    -6.01256    -6.59436     4.51049
  Fock        0.00000     0.00000     0.00000     0.00000     0.00000     0.00000
  -------------------------------------------------------------------------------------
  Total     -13.01743   -13.01743    -0.70128     0.00000    -0.00000     0.00000
  in kB     -25.30703   -25.30703    -1.36334     0.00000    -0.00000     0.00000
  external pressure =      -17.33 kB  Pullay stress =        0.00 kB


 VOLUME and BASIS-vectors are now :
 -----------------------------------------------------------------------------
  energy-cutoff  :      350.00
  volume of cell :      824.13
      direct lattice vectors                 reciprocal lattice vectors
     5.557859300  0.000000000  0.000000000     0.179925390 -0.103879972  0.000000000
     2.778929650  4.813247345  0.000000000     0.000000000  0.207759944  0.000000000
     0.000000000  0.000000000 30.806959674     0.000000000  0.000000000  0.032460198

  length of vectors
     5.557859300  5.557859300 30.806959674     0.207759944  0.207759944  0.032460198


 FORCES acting on ions
    electron-ion (+dipol)            ewald-force                    non-local-force                 convergence-correction
 -----------------------------------------------------------------------------------------------
   0.778E-06 0.449E-06 0.283E+04   -.103E-11 -.571E-12 -.283E+04   0.651E-18 -.651E-18 -.979E+00   -.275E-08 -.159E-08 -.675E-01
   0.778E-06 0.449E-06 0.283E+04   -.106E-11 -.572E-12 -.283E+04   0.542E-18 -.867E-18 -.979E+00   -.275E-08 -.159E-08 -.675E-01
   0.778E-06 0.449E-06 0.283E+04   -.100E-11 -.604E-12 -.283E+04   0.542E-18 -.434E-18 -.979E+00   -.275E-08 -.159E-08 -.675E-01
   0.778E-06 0.449E-06 0.283E+04   -.103E-11 -.604E-12 -.283E+04   0.163E-17 -.651E-18 -.979E+00   -.275E-08 -.159E-08 -.675E-01
   0.127E-05 0.735E-06 0.948E+03   0.309E-11 0.182E-11 -.948E+03   0.298E-18 0.119E-17 -.269E+00   0.369E-08 0.213E-08 -.198E+00
   0.127E-05 0.735E-06 0.948E+03   0.306E-11 0.182E-11 -.948E+03   0.160E-17 -.228E-17 -.269E+00   0.369E-08 0.213E-08 -.198E+00
   0.127E-05 0.735E-06 0.948E+03   0.311E-11 0.180E-11 -.948E+03   0.179E-17 -.651E-18 -.269E+00   0.369E-08 0.213E-08 -.198E+00
   0.127E-05 0.735E-06 0.948E+03   0.309E-11 0.179E-11 -.948E+03   0.228E-17 0.206E-17 -.269E+00   0.369E-08 0.213E-08 -.198E+00
   -.107E-05 -.620E-06 -.950E+03   -.298E-11 -.171E-11 0.950E+03   0.323E-17 0.434E-18 0.361E+00   0.237E-08 0.137E-08 -.118E+00
   -.107E-05 -.620E-06 -.950E+03   -.301E-11 -.171E-11 0.950E+03   0.379E-17 0.651E-18 0.361E+00   0.237E-08 0.137E-08 -.118E+00
   -.107E-05 -.620E-06 -.950E+03   -.296E-11 -.174E-11 0.950E+03   -.271E-18 0.434E-18 0.361E+00   0.237E-08 0.137E-08 -.118E+00
   -.107E-05 -.620E-06 -.950E+03   -.299E-11 -.174E-11 0.950E+03   0.298E-17 0.651E-18 0.361E+00   0.237E-08 0.137E-08 -.118E+00
   -.916E-06 -.529E-06 -.283E+04   0.933E-12 0.530E-12 0.283E+04   -.195E-17 0.000E+00 0.910E+00   -.113E-08 -.653E-09 0.258E-01
   -.916E-06 -.529E-06 -.283E+04   0.906E-12 0.526E-12 0.283E+04   -.542E-18 -.434E-18 0.910E+00   -.113E-08 -.653E-09 0.258E-01
   -.916E-06 -.529E-06 -.283E+04   0.958E-12 0.498E-12 0.283E+04   -.217E-18 -.434E-18 0.910E+00   -.113E-08 -.653E-09 0.258E-01
   -.916E-06 -.529E-06 -.283E+04   0.931E-12 0.497E-12 0.283E+04   -.141E-17 -.867E-18 0.910E+00   -.113E-08 -.653E-09 0.258E-01
 -----------------------------------------------------------------------------------------------
   0.240E-06 0.139E-06 0.131E+01   0.134E-13 0.351E-13 -.455E-11   0.149E-16 -.184E-17 0.941E-01   0.872E-08 0.504E-08 -.143E+01
 
 
 POSITION                                       TOTAL-FORCE (eV/Angst)
 -----------------------------------------------------------------------------------
      0.00000      0.00000     12.00000         0.000000     -0.000000     -0.061274
      2.77893      0.00000     12.00000        -0.000000      0.000000     -0.061274
      1.38946      2.40662     12.00000        -0.000000      0.000000     -0.061274
      4.16839      2.40662     12.00000         0.000000     -0.000000     -0.061274
      1.38946      0.80221     14.31554        -0.000000     -0.000000      0.041375
      4.16839      0.80221     14.31554         0.000000      0.000000      0.041375
      2.77893      3.20883     14.31554         0.000000      0.000000      0.041375
      5.55786      3.20883     14.31554         0.000000     -0.000000      0.041375
      5.55786      1.60442     16.61120         0.000000      0.000000      0.044879
      2.77893      1.60442     16.61120         0.000000      0.000000      0.044879
      6.94732      4.01104     16.61120         0.000000      0.000000      0.044879
      4.16839      4.01104     16.61120         0.000000     -0.000000      0.044879
     -0.00000      0.00000     18.94198        -0.000000     -0.000000     -0.024979
      2.77893      0.00000     18.94198         0.000000      0.000000     -0.024979
      1.38946      2.40662     18.94198        -0.000000      0.000000     -0.024979
      4.16839      2.40662     18.94198        -0.000000     -0.000000     -0.024979
 -----------------------------------------------------------------------------------
    total drift:                                0.000000      0.000000     -0.024801


--------------------------------------------------------------------------------------------------------



  FREE ENERGIE OF THE ION-ELECTRON SYSTEM (eV)
  ---------------------------------------------------
  free  energy   TOTEN  =       -92.85482349 eV

  energy  without entropy=      -92.82325201  energy(sigma->0) =      -92.84429966
 
 d Force = 0.1309485E-01[ 0.634E-02, 0.199E-01]  d Energy = 0.1319907E-01-0.104E-03
 d Force = 0.2498955E+03[ 0.250E+03, 0.250E+03]  d Ewald  = 0.2498957E+03-0.245E-03


--------------------------------------------------------------------------------------------------------


    POTLOK:  cpu time    0.0225: real time    0.0225


--------------------------------------------------------------------------------------------------------




--------------------------------------------------------------------------------------------------------


  
 reached required accuracy - stopping structural energy minimisation
     LOOP+:  cpu time   77.3806: real time   77.4479
    4ORBIT:  cpu time    0.0000: real time    0.0000

 total amount of memory used by VASP MPI-rank0    92802. kBytes
=======================================================================

   base      :      30000. kBytes
   nonl-proj :      38723. kBytes
   fftplans  :       1549. kBytes
   grid      :       6083. kBytes
   one-center:        248. kBytes
   wavefun   :      16199. kBytes
 
  
  
 General timing and accounting informations for this job:
 ========================================================
  
                  Total CPU time used (sec):      752.694
                            User time (sec):      749.518
                          System time (sec):        3.176
                         Elapsed time (sec):      753.684
  
                   Maximum memory used (kb):      168984.
                   Average memory used (kb):           0.
  
                          Minor page faults:       205869
                          Major page faults:            7
                 Voluntary context switches:         1155
