 vasp.5.4.4.18Apr17-6-g9f103f2a35 (build Apr 28 2017 10:53:45) complex          
  
 executed on             LinuxIFC date 2020.02.17  09:19:46
 running on   24 total cores
 distrk:  each k-point on   24 cores,    1 groups
 distr:  one band on NCORES_PER_BAND=   1 cores,   24 groups


--------------------------------------------------------------------------------------------------------


 INCAR:
 POTCAR:    PAW_PBE Au 04Oct2007                  
 POTCAR:    PAW_PBE Pt 04Feb2005                  
 POTCAR:    PAW_PBE Ir 06Sep2000                  

 ----------------------------------------------------------------------------- 
|                                                                             |
|           W    W    AA    RRRRR   N    N  II  N    N   GGGG   !!!           |
|           W    W   A  A   R    R  NN   N  II  NN   N  G    G  !!!           |
|           W    W  A    A  R    R  N N  N  II  N N  N  G       !!!           |
|           W WW W  AAAAAA  RRRRR   N  N N  II  N  N N  G  GGG   !            |
|           WW  WW  A    A  R   R   N   NN  II  N   NN  G    G                |
|           W    W  A    A  R    R  N    N  II  N    N   GGGG   !!!           |
|                                                                             |
|      For optimal performance we recommend to set                            |
|        NCORE= 4 - approx SQRT( number of cores)                             |
|      NCORE specifies how many cores store one orbital (NPAR=cpu/NCORE).     |
|      This setting can  greatly improve the performance of VASP for DFT.     |
|      The default,   NCORE=1            might be grossly inefficient         |
|      on modern multi-core architectures or massively parallel machines.     |
|      Do your own testing !!!!                                               |
|      Unfortunately you need to use the default for GW and RPA calculations. |
|      (for HF NCORE is supported but not extensively tested yet)             |
|                                                                             |
 ----------------------------------------------------------------------------- 

 POTCAR:    PAW_PBE Au 04Oct2007                  
   SHA256 =  d0044ae04e2bdce24051b198fc5c053d722a5bc6fe3c3b100514a13fc5d2db88 Au
   COPYR  = (c) Copyright 04Oct2007 Georg Kresse                                
   COPYR  = This file is part of the software VASP. Any use, copying, and all ot
   COPYR  = If you do not have a valid VASP license, you may not use, copy or di
   VRHFIN =Au: s1d10                                                            
   LEXCH  = PE                                                                  
   EATOM  =   926.0867 eV,   68.0654 Ry                                         
                                                                                
   TITEL  = PAW_PBE Au 04Oct2007                                                
   LULTRA =        F    use ultrasoft PP ?                                      
   IUNSCR =        1    unscreen: 0-lin 1-nonlin 2-no                           
   RPACOR =    2.330    partial core radius                                     
   POMASS =  196.966; ZVAL   =   11.000    mass and valenz                      
   RCORE  =    2.500    outmost cutoff radius                                   
   RWIGS  =    2.840; RWIGS  =    1.503    wigner-seitz radius (au A)           
   ENMAX  =  229.943; ENMIN  =  172.457 eV                                      
   ICORE  =        3    local potential                                         
   LCOR   =        T    correct aug charges                                     
   LPAW   =        T    paw PP                                                  
   EAUG   =  356.670                                                            
   DEXC   =    0.000                                                            
   RMAX   =    2.562    core radius for proj-oper                               
   RAUG   =    1.300    factor for augmentation sphere                          
   RDEP   =    2.598    radius for radial grids                                 
   RDEPT  =    2.193    core radius for aug-charge                              
                                                                                
   Atomic configuration                                                         
   16 entries                                                                   
     n  l   j            E        occ.                                          
     1  0  0.50    -80748.5001   2.0000                                         
     2  0  0.50    -14244.7466   2.0000                                         
     2  1  1.50    -12310.9591   6.0000                                         
     3  0  0.50     -3362.1768   2.0000                                         
     3  1  1.50     -2801.5463   6.0000                                         
     3  2  2.50     -2203.8206  10.0000                                         
     4  0  0.50      -729.8168   2.0000                                         
     4  1  1.50      -546.0527   6.0000                                         
     4  2  2.50      -325.7302  10.0000                                         
     4  3  3.50       -81.1472  14.0000                                         
     5  0  0.50      -108.3201   2.0000                                         
     5  1  1.50       -59.7479   6.0000                                         
     5  2  2.50        -6.8783  10.0000                                         
     6  0  0.50        -5.7602   1.0000                                         
     6  1  1.50        -6.8029   0.0000                                         
     5  3  2.50        -1.3606   0.0000                                         
   Description                                                                  
     l       E           TYP  RCUT    TYP  RCUT                                 
     2     -6.8782861     23  2.500                                             
     2     -8.2388687     23  2.500                                             
     0     -5.7601759     23  2.500                                             
     0     -0.8493231     23  2.500                                             
     1     -2.7211652     23  2.500                                             
     1     27.2116520     23  2.500                                             
     3     -1.3605826     23  2.500                                             
  local pseudopotential read in
  partial core-charges read in
  partial kinetic energy density read in
  atomic valenz-charges read in
  non local Contribution for L=           2  read in
    real space projection operators read in
  non local Contribution for L=           2  read in
    real space projection operators read in
  non local Contribution for L=           0  read in
    real space projection operators read in
  non local Contribution for L=           0  read in
    real space projection operators read in
  non local Contribution for L=           1  read in
    real space projection operators read in
  non local Contribution for L=           1  read in
    real space projection operators read in
    PAW grid and wavefunctions read in
 
   number of l-projection  operators is LMAX  =           6
   number of lm-projection operators is LMMAX =          18
 
 POTCAR:    PAW_PBE Pt 04Feb2005                  
   SHA256 =  3ed90460adef76debcff1cfb73ee1349b515b1a3db03439735b44de3a8db7dc8 Pt
   COPYR  = (c) Copyright 04Feb2005 Georg Kresse                                
   COPYR  = This file is part of the software VASP. Any use, copying, and all ot
   COPYR  = If you do not have a valid VASP license, you may not use, copy or di
   VRHFIN =Pt: s1d9                                                             
   LEXCH  = PE                                                                  
   EATOM  =   729.1176 eV,   53.5886 Ry                                         
                                                                                
   TITEL  = PAW_PBE Pt 04Feb2005                                                
   LULTRA =        F    use ultrasoft PP ?                                      
   IUNSCR =        1    unscreen: 0-lin 1-nonlin 2-no                           
   RPACOR =    2.330    partial core radius                                     
   POMASS =  195.080; ZVAL   =   10.000    mass and valenz                      
   RCORE  =    2.600    outmost cutoff radius                                   
   RWIGS  =    2.750; RWIGS  =    1.455    wigner-seitz radius (au A)           
   ENMAX  =  230.283; ENMIN  =  172.712 eV                                      
   ICORE  =        3    local potential                                         
   LCOR   =        T    correct aug charges                                     
   LPAW   =        T    paw PP                                                  
   EAUG   =  358.966                                                            
   DEXC   =    0.000                                                            
   RMAX   =    2.658    core radius for proj-oper                               
   RAUG   =    1.300    factor for augmentation sphere                          
   RDEP   =    2.761    radius for radial grids                                 
   RDEPT  =    2.203    core radius for aug-charge                              
                                                                                
   Atomic configuration                                                         
   16 entries                                                                   
     n  l   j            E        occ.                                          
     1  0  0.50    -78401.1885   2.0000                                         
     2  0  0.50    -13770.7750   2.0000                                         
     2  1  1.50    -11931.0468   6.0000                                         
     3  0  0.50     -3234.7234   2.0000                                         
     3  1  1.50     -2699.2216   6.0000                                         
     3  2  2.50     -2119.5714  10.0000                                         
     4  0  0.50      -695.1528   2.0000                                         
     4  1  1.50      -519.6034   6.0000                                         
     4  2  2.50      -306.6786  10.0000                                         
     4  3  3.50       -70.1041  14.0000                                         
     5  0  0.50      -101.7747   2.0000                                         
     5  1  1.50       -55.9873   6.0000                                         
     5  2  2.50        -6.1423   9.0000                                         
     6  0  0.50        -5.6573   1.0000                                         
     6  1  1.50        -6.8029   0.0000                                         
     5  3  2.50        -1.3606   0.0000                                         
   Description                                                                  
     l       E           TYP  RCUT    TYP  RCUT                                 
     2     -6.1423404     23  2.500                                             
     2     -7.5029230     23  2.500                                             
     0     -5.6573207     23  2.500                                             
     0      0.7416693     23  2.500                                             
     1     -2.7211652     23  2.600                                             
     1     20.4087390     23  2.600                                             
     3     -1.3605826     23  2.500                                             
  local pseudopotential read in
  partial core-charges read in
  partial kinetic energy density read in
  atomic valenz-charges read in
  non local Contribution for L=           2  read in
    real space projection operators read in
  non local Contribution for L=           2  read in
    real space projection operators read in
  non local Contribution for L=           0  read in
    real space projection operators read in
  non local Contribution for L=           0  read in
    real space projection operators read in
  non local Contribution for L=           1  read in
    real space projection operators read in
  non local Contribution for L=           1  read in
    real space projection operators read in
    PAW grid and wavefunctions read in
 
   number of l-projection  operators is LMAX  =           6
   number of lm-projection operators is LMMAX =          18
 
 POTCAR:    PAW_PBE Ir 06Sep2000                  
   SHA256 =  7c6af8d4d487b237782eb51e6f62977b27a1da78c3c96acd1cebefd6c308f120 Ir
   COPYR  = (c) Copyright 06Sep2000 Georg Kresse                                
   COPYR  = This file is part of the software VASP. Any use, copying, and all ot
   COPYR  = If you do not have a valid VASP license, you may not use, copy or di
   VRHFIN =Ir: s1d8                                                             
   LEXCH  = PE                                                                  
   EATOM  =   560.1833 eV,   41.1723 Ry                                         
                                                                                
   TITEL  = PAW_PBE Ir 06Sep2000                                                
   LULTRA =        F    use ultrasoft PP ?                                      
   IUNSCR =        1    unscreen: 0-lin 1-nonlin 2-no                           
   RPACOR =    2.250    partial core radius                                     
   POMASS =  192.220; ZVAL   =    9.000    mass and valenz                      
   RCORE  =    2.600    outmost cutoff radius                                   
   RWIGS  =    2.690; RWIGS  =    1.423    wigner-seitz radius (au A)           
   ENMAX  =  210.864; ENMIN  =  158.148 eV                                      
   RCLOC  =    1.857    cutoff for local pot                                    
   LCOR   =        T    correct aug charges                                     
   LPAW   =        T    paw PP                                                  
   EAUG   =  318.962                                                            
   DEXC   =    0.000                                                            
   RMAX   =    2.667    core radius for proj-oper                               
   RAUG   =    1.300    factor for augmentation sphere                          
   RDEP   =    2.748    radius for radial grids                                 
   RDEPT  =    2.300    core radius for aug-charge                              
                                                                                
   Atomic configuration                                                         
   16 entries                                                                   
     n  l   j            E        occ.                                          
     1  0  0.50    -76100.0449   2.0000                                         
     2  0  0.50    -13308.1683   2.0000                                         
     2  1  1.50    -11558.0021   6.0000                                         
     3  0  0.50     -3110.7274   2.0000                                         
     3  1  1.50     -2599.2109   6.0000                                         
     3  2  2.50     -2037.1515  10.0000                                         
     4  0  0.50      -661.6001   2.0000                                         
     4  1  1.50      -493.8981   6.0000                                         
     4  2  2.50      -288.1909  10.0000                                         
     4  3  3.50       -59.5718  14.0000                                         
     5  0  0.50       -95.3879   2.0000                                         
     5  1  1.50       -52.2747   6.0000                                         
     5  2  2.50        -5.4180   8.0000                                         
     6  0  0.50        -5.5479   1.0000                                         
     6  1  1.50        -6.8029   0.0000                                         
     5  3  2.50        -1.3606   0.0000                                         
   Description                                                                  
     l       E           TYP  RCUT    TYP  RCUT                                 
     2     -5.4179967     23  2.600                                             
     2     -6.7785793     23  2.600                                             
     0     -5.5478636     23  2.600                                             
     0      2.2542272     23  2.600                                             
     1     -2.7211652     23  2.600                                             
     1     20.4087390     23  2.600                                             
  local pseudopotential read in
  partial core-charges read in
  partial kinetic energy density read in
  atomic valenz-charges read in
  non local Contribution for L=           2  read in
    real space projection operators read in
  non local Contribution for L=           2  read in
    real space projection operators read in
  non local Contribution for L=           0  read in
    real space projection operators read in
  non local Contribution for L=           0  read in
    real space projection operators read in
  non local Contribution for L=           1  read in
    real space projection operators read in
  non local Contribution for L=           1  read in
    real space projection operators read in
    PAW grid and wavefunctions read in
 
   number of l-projection  operators is LMAX  =           6
   number of lm-projection operators is LMMAX =          18
 
  PAW_PBE Au 04Oct2007                  :
 energy of atom  1       EATOM= -926.0867
 kinetic energy error for atom=    0.0152 (will be added to EATOM!!)
  PAW_PBE Pt 04Feb2005                  :
 energy of atom  2       EATOM= -729.1176
 kinetic energy error for atom=    0.0144 (will be added to EATOM!!)
  PAW_PBE Ir 06Sep2000                  :
 energy of atom  3       EATOM= -560.1833
 kinetic energy error for atom=    0.0056 (will be added to EATOM!!)
 
 
 POSCAR: Au Pt Ir                                
  positions in cartesian coordinates
  No initial velocities read in
 exchange correlation table for  LEXCH =        8
   RHO(1)=    0.500       N(1)  =     2000
   RHO(2)=  100.500       N(2)  =     4000
 


--------------------------------------------------------------------------------------------------------


 ion  position               nearest neighbor table
   1  0.000  0.000  0.390-   3 2.78   3 2.78   4 2.78   4 2.78   2 2.78   2 2.78   5 2.82   6 2.82
                             7 2.82
   2  0.500  0.000  0.390-   4 2.78   3 2.78   4 2.78   3 2.78   1 2.78   1 2.78   6 2.82   5 2.82
                             8 2.82
   3  0.000  0.500  0.390-   1 2.78   1 2.78   2 2.78   2 2.78   4 2.78   4 2.78   7 2.82   5 2.82
                             8 2.82
   4  0.500  0.500  0.390-   2 2.78   1 2.78   2 2.78   1 2.78   3 2.78   3 2.78   8 2.82   7 2.82
                             6 2.82
   5  0.167  0.167  0.465-   7 2.78   7 2.78   8 2.78   8 2.78   6 2.78   6 2.78   9 2.80  12 2.80
                            10 2.80   1 2.82   3 2.82   2 2.82
   6  0.667  0.167  0.465-   8 2.78   7 2.78   8 2.78   7 2.78   5 2.78   5 2.78  10 2.80  11 2.80
                             9 2.80   2 2.82   4 2.82   1 2.82
   7  0.167  0.667  0.465-   5 2.78   5 2.78   6 2.78   6 2.78   8 2.78   8 2.78  10 2.80  11 2.80
                            12 2.80   3 2.82   4 2.82   1 2.82
   8  0.667  0.667  0.465-   6 2.78   5 2.78   6 2.78   5 2.78   7 2.78   7 2.78   9 2.80  12 2.80
                            11 2.80   4 2.82   2 2.82   3 2.82
   9  0.833  0.333  0.539-  11 2.78  11 2.78  12 2.78  12 2.78  10 2.78  10 2.78   5 2.80   8 2.80
                             6 2.80  14 2.83  13 2.83  15 2.83
  10  0.333  0.333  0.539-  12 2.78  11 2.78  12 2.78  11 2.78   9 2.78   9 2.78   6 2.80   7 2.80
                             5 2.80  15 2.83  16 2.83  14 2.83
  11  0.833  0.833  0.539-   9 2.78   9 2.78  10 2.78  10 2.78  12 2.78  12 2.78   6 2.80   7 2.80
                             8 2.80  13 2.83  14 2.83  16 2.83
  12  0.333  0.833  0.539-  10 2.78   9 2.78  10 2.78   9 2.78  11 2.78  11 2.78   5 2.80   8 2.80
                             7 2.80  16 2.83  15 2.83  13 2.83
  13  0.000  0.000  0.615-  14 2.78  14 2.78  15 2.78  15 2.78  16 2.78  16 2.78  11 2.83   9 2.83
                            12 2.83
  14  0.000  0.500  0.615-  13 2.78  13 2.78  16 2.78  16 2.78  15 2.78  15 2.78   9 2.83  11 2.83
                            10 2.83
  15  0.500  0.500  0.615-  16 2.78  13 2.78  16 2.78  13 2.78  14 2.78  14 2.78  10 2.83  12 2.83
                             9 2.83
  16  0.500  0.000  0.615-  15 2.78  14 2.78  15 2.78  14 2.78  13 2.78  13 2.78  12 2.83  10 2.83
                            11 2.83
 
  LATTYP: Found a hexagonal cell.
 ALAT       =     5.5578593001
 C/A-ratio  =     5.5429542221
  
  Lattice vectors:
  
 A1 = (   2.7789296501,  -4.8132473446,   0.0000000000)
 A2 = (  -5.5578593001,   0.0000000000,   0.0000000000)
 A3 = (   0.0000000000,   0.0000000000, -30.8069596737)


Analysis of symmetry for initial positions (statically):
=====================================================================
 Subroutine PRICEL returns:
 Original cell was already a primitive cell.
 

 Routine SETGRP: Setting up the symmetry group for a 
 hexagonal supercell.


 Subroutine GETGRP returns: Found  2 space group operations
 (whereof  2 operations were pure point group operations)
 out of a pool of 24 trial point group operations.


The static configuration has the point symmetry C_1h.


Analysis of symmetry for dynamics (positions and initial velocities):
=====================================================================
 Subroutine PRICEL returns:
 Original cell was already a primitive cell.
 

 Routine SETGRP: Setting up the symmetry group for a 
 hexagonal supercell.


 Subroutine GETGRP returns: Found  2 space group operations
 (whereof  2 operations were pure point group operations)
 out of a pool of 24 trial point group operations.


The dynamic configuration has the point symmetry C_1h.


Analysis of constrained symmetry for selective dynamics:
=====================================================================
 Subroutine PRICEL returns:
 Original cell was already a primitive cell.
 

 Routine SETGRP: Setting up the symmetry group for a 
 hexagonal supercell.


 Subroutine GETGRP returns: Found  2 space group operations
 (whereof  2 operations were pure point group operations)
 out of a pool of 24 trial point group operations.


The constrained configuration has the point symmetry C_1h.


 Subroutine INISYM returns: Found  2 space group operations
 (whereof  2 operations are pure point group operations),
 and found     1 'primitive' translations

 
 
 KPOINTS: KPOINTS created by Atomic Simulation Env

Automatic generation of k-mesh.
Space group operators:
 irot       det(A)        alpha          n_x          n_y          n_z        tau_x        tau_y        tau_z
    1     1.000000     0.000001     1.000000     0.000000     0.000000     0.000000     0.000000     0.000000
    2    -1.000000   180.000000     1.000000     0.000000     0.000000     0.000000     0.000000     0.000000
 
 Subroutine IBZKPT returns following result:
 ===========================================
 
 Found     52 irreducible k-points:
 
 Following reciprocal coordinates:
            Coordinates               Weight
  0.062500  0.062500  0.000000     32.000000
  0.000000  0.062500  0.000000     16.000000
  0.187500  0.062500  0.000000     32.000000
  0.125000  0.187500  0.000000     32.000000
 -0.062500  0.125000  0.000000     32.000000
  0.312500  0.062500  0.000000     32.000000
  0.250000  0.312500  0.000000     32.000000
 -0.062500  0.250000  0.000000     32.000000
  0.437500  0.062500  0.000000     32.000000
  0.375000  0.437500  0.000000     32.000000
 -0.062500  0.375000  0.000000     32.000000
 -0.437500  0.062500  0.000000     32.000000
  0.500000 -0.437500  0.000000     32.000000
 -0.062500  0.500000  0.000000     32.000000
 -0.312500  0.062500  0.000000     32.000000
 -0.375000 -0.312500  0.000000     32.000000
 -0.062500 -0.375000  0.000000     32.000000
 -0.187500  0.062500  0.000000     32.000000
 -0.250000 -0.187500  0.000000     32.000000
 -0.062500 -0.250000  0.000000     32.000000
 -0.062500  0.062500  0.000000     32.000000
 -0.125000 -0.062500  0.000000     16.000000
  0.187500  0.187500  0.000000     32.000000
  0.000000  0.187500  0.000000     16.000000
  0.312500  0.187500  0.000000     32.000000
  0.125000  0.312500  0.000000     32.000000
 -0.187500  0.125000  0.000000     32.000000
  0.437500  0.187500  0.000000     32.000000
  0.250000  0.437500  0.000000     32.000000
 -0.187500  0.250000  0.000000     32.000000
 -0.437500  0.187500  0.000000     32.000000
  0.375000 -0.437500  0.000000     32.000000
 -0.187500  0.375000  0.000000     32.000000
 -0.312500  0.187500  0.000000     32.000000
  0.500000 -0.312500  0.000000     32.000000
 -0.187500  0.500000  0.000000     32.000000
 -0.187500  0.187500  0.000000     32.000000
 -0.375000 -0.187500  0.000000     16.000000
  0.312500  0.312500  0.000000     32.000000
  0.000000  0.312500  0.000000     16.000000
  0.437500  0.312500  0.000000     32.000000
  0.125000  0.437500  0.000000     32.000000
 -0.312500  0.125000  0.000000     32.000000
 -0.437500  0.312500  0.000000     32.000000
  0.250000 -0.437500  0.000000     32.000000
 -0.312500  0.250000  0.000000     32.000000
 -0.312500  0.312500  0.000000     32.000000
  0.375000 -0.312500  0.000000     16.000000
  0.437500  0.437500  0.000000     32.000000
  0.000000  0.437500  0.000000     16.000000
 -0.437500  0.437500  0.000000     32.000000
  0.125000 -0.437500  0.000000     16.000000
 
 Following cartesian coordinates:
            Coordinates               Weight
  0.011245  0.006492  0.000000     32.000000
  0.000000  0.012985  0.000000     16.000000
  0.033736 -0.006492  0.000000     32.000000
  0.022491  0.025970  0.000000     32.000000
 -0.011245  0.032462  0.000000     32.000000
  0.056227 -0.019477  0.000000     32.000000
  0.044981  0.038955  0.000000     32.000000
 -0.011245  0.058432  0.000000     32.000000
  0.078717 -0.032462  0.000000     32.000000
  0.067472  0.051940  0.000000     32.000000
 -0.011245  0.084402  0.000000     32.000000
 -0.078717  0.058432  0.000000     32.000000
  0.089963 -0.142835  0.000000     32.000000
 -0.011245  0.110372  0.000000     32.000000
 -0.056227  0.045447  0.000000     32.000000
 -0.067472 -0.025970  0.000000     32.000000
 -0.011245 -0.071417  0.000000     32.000000
 -0.033736  0.032462  0.000000     32.000000
 -0.044981 -0.012985  0.000000     32.000000
 -0.011245 -0.045447  0.000000     32.000000
 -0.011245  0.019477  0.000000     32.000000
 -0.022491  0.000000  0.000000     16.000000
  0.033736  0.019477  0.000000     32.000000
  0.000000  0.038955  0.000000     16.000000
  0.056227  0.006492  0.000000     32.000000
  0.022491  0.051940  0.000000     32.000000
 -0.033736  0.045447  0.000000     32.000000
  0.078717 -0.006492  0.000000     32.000000
  0.044981  0.064925  0.000000     32.000000
 -0.033736  0.071417  0.000000     32.000000
 -0.078717  0.084402  0.000000     32.000000
  0.067472 -0.129850  0.000000     32.000000
 -0.033736  0.097387  0.000000     32.000000
 -0.056227  0.071417  0.000000     32.000000
  0.089963 -0.116865  0.000000     32.000000
 -0.033736  0.123357  0.000000     32.000000
 -0.033736  0.058432  0.000000     32.000000
 -0.067472  0.000000  0.000000     16.000000
  0.056227  0.032462  0.000000     32.000000
  0.000000  0.064925  0.000000     16.000000
  0.078717  0.019477  0.000000     32.000000
  0.022491  0.077910  0.000000     32.000000
 -0.056227  0.058432  0.000000     32.000000
 -0.078717  0.110372  0.000000     32.000000
  0.044981 -0.116865  0.000000     32.000000
 -0.056227  0.084402  0.000000     32.000000
 -0.056227  0.097387  0.000000     32.000000
  0.067472 -0.103880  0.000000     16.000000
  0.078717  0.045447  0.000000     32.000000
  0.000000  0.090895  0.000000     16.000000
 -0.078717  0.136342  0.000000     32.000000
  0.022491 -0.103880  0.000000     16.000000
 


--------------------------------------------------------------------------------------------------------




 Dimension of arrays:
   k-points           NKPTS =     52   k-points in BZ     NKDIM =     52   number of bands    NBANDS=     96
   number of dos      NEDOS =    301   number of ions     NIONS =     16
   non local maximal  LDIM  =      6   non local SUM 2l+1 LMDIM =     18
   total plane-waves  NPLWV = 112896
   max r-space proj   IRMAX =      1   max aug-charges    IRDMAX=  10104
   dimension x,y,z NGX =    28 NGY =   28 NGZ =  144
   dimension x,y,z NGXF=    56 NGYF=   56 NGZF=  288
   support grid    NGXF=    56 NGYF=   56 NGZF=  288
   ions per type =               1  14   1
   NGX,Y,Z   is equivalent  to a cutoff of   8.38,  8.38,  7.77 a.u.
   NGXF,Y,Z  is equivalent  to a cutoff of  16.75, 16.75, 15.54 a.u.

 SYSTEM =  unknown system                          
 POSCAR =  Au Pt Ir                                

 Startparameter for this run:
   NWRITE =      2    write-flag & timer
   PREC   = normal    normal or accurate (medium, high low for compatibility)
   ISTART =      0    job   : 0-new  1-cont  2-samecut
   ICHARG =      2    charge: 1-file 2-atom 10-const
   ISPIN  =      1    spin polarized calculation?
   LNONCOLLINEAR =      F non collinear calculations
   LSORBIT =      F    spin-orbit coupling
   INIWAV =      1    electr: 0-lowe 1-rand  2-diag
   LASPH  =      F    aspherical Exc in radial PAW
   METAGGA=      F    non-selfconsistent MetaGGA calc.

 Electronic Relaxation 1
   ENCUT  =  350.0 eV  25.72 Ry    5.07 a.u.   8.48  8.48 46.99*2*pi/ulx,y,z
   ENINI  =  350.0     initial cutoff
   ENAUG  =  359.0 eV  augmentation charge cutoff
   NELM   =     60;   NELMIN=  2; NELMDL= -5     # of ELM steps 
   EDIFF  = 0.1E-04   stopping-criterion for ELM
   LREAL  =      F    real-space projection
   NLSPLINE    = F    spline interpolate recip. space projectors
   LCOMPAT=      F    compatible to vasp.4.4
   GGA_COMPAT  = T    GGA compatible to vasp.4.4-vasp.4.6
   LMAXPAW     = -100 max onsite density
   LMAXMIX     =    2 max onsite mixed and CHGCAR
   VOSKOWN=      0    Vosko Wilk Nusair interpolation
   ROPT   =    0.00000   0.00000   0.00000
 Ionic relaxation
   EDIFFG = -.5E-01   stopping-criterion for IOM
   NSW    =      0    number of steps for IOM
   NBLOCK =      1;   KBLOCK =      1    inner block; outer block 
   IBRION =     -1    ionic relax: 0-MD 1-quasi-New 2-CG
   NFREE  =      1    steps in history (QN), initial steepest desc. (CG)
   ISIF   =      2    stress and relaxation
   IWAVPR =     10    prediction:  0-non 1-charg 2-wave 3-comb
   ISYM   =      2    0-nonsym 1-usesym 2-fastsym
   LCORR  =      T    Harris-Foulkes like correction to forces

   POTIM  = 0.5000    time-step for ionic-motion
   TEIN   =    0.0    initial temperature
   TEBEG  =    0.0;   TEEND  =   0.0 temperature during run
   SMASS  =  -3.00    Nose mass-parameter (am)
   estimated Nose-frequenzy (Omega)   =  0.10E-29 period in steps =****** mass=  -0.706E-27a.u.
   SCALEE = 1.0000    scale energy and forces
   NPACO  =    256;   APACO  = 16.0  distance and # of slots for P.C.
   PSTRESS=    0.0 pullay stress

  Mass of Ions in am
   POMASS = 196.97195.08192.22
  Ionic Valenz
   ZVAL   =  11.00 10.00  9.00
  Atomic Wigner-Seitz radii
   RWIGS  =  -1.00 -1.00 -1.00
  virtual crystal weights 
   VCA    =   1.00  1.00  1.00
   NELECT =     160.0000    total number of electrons
   NUPDOWN=      -1.0000    fix difference up-down

 DOS related values:
   EMIN   =  10.00;   EMAX   =-10.00  energy-range for DOS
   EFERMI =   0.00
   ISMEAR =     1;   SIGMA  =   0.20  broadening in eV -4-tet -1-fermi 0-gaus

 Electronic relaxation 2 (details)
   IALGO  =     38    algorithm
   LDIAG  =      T    sub-space diagonalisation (order eigenvalues)
   LSUBROT=      F    optimize rotation matrix (better conditioning)
   TURBO    =      0    0=normal 1=particle mesh
   IRESTART =      0    0=no restart 2=restart with 2 vectors
   NREBOOT  =      0    no. of reboots
   NMIN     =      0    reboot dimension
   EREF     =   0.00    reference energy to select bands
   IMIX   =      4    mixing-type and parameters
     AMIX     =   0.40;   BMIX     =  1.00
     AMIX_MAG =   1.60;   BMIX_MAG =  1.00
     AMIN     =   0.10
     WC   =   100.;   INIMIX=   1;  MIXPRE=   1;  MAXMIX= -45

 Intra band minimization:
   WEIMIN = 0.0000     energy-eigenvalue tresh-hold
   EBREAK =  0.26E-07  absolut break condition
   DEPER  =   0.30     relativ break condition  

   TIME   =   0.40     timestep for ELM

  volume/ion in A,a.u.               =      51.51       347.59
  Fermi-wavevector in a.u.,A,eV,Ry     =   0.947945  1.791357 12.226201  0.898600
  Thomas-Fermi vector in A             =   2.076087
 
 Write flags
   LWAVE        =      F    write WAVECAR
   LDOWNSAMPLE  =      F    k-point downsampling of WAVECAR
   LCHARG       =      F    write CHGCAR
   LVTOT        =      F    write LOCPOT, total local potential
   LVHAR        =      F    write LOCPOT, Hartree potential only
   LELF         =      F    write electronic localiz. function (ELF)
   LORBIT       =      0    0 simple, 1 ext, 2 COOP (PROOUT), +10 PAW based schemes


 Dipole corrections
   LMONO  =      F    monopole corrections only (constant potential shift)
   LDIPOL =      F    correct potential (dipole corrections)
   IDIPOL =      3    1-x, 2-y, 3-z, 4-all directions 
   EPSILON=  1.0000000 bulk dielectric constant

 Exchange correlation treatment:
   GGA     =    PE    GGA type
   LEXCH   =     8    internal setting for exchange type
   VOSKOWN=      0    Vosko Wilk Nusair interpolation
   LHFCALC =     F    Hartree Fock is set to
   LHFONE  =     F    Hartree Fock one center treatment
   AEXX    =    0.0000 exact exchange contribution

 Linear response parameters
   LEPSILON=     F    determine dielectric tensor
   LRPA    =     F    only Hartree local field effects (RPA)
   LNABLA  =     F    use nabla operator in PAW spheres
   LVEL    =     F    velocity operator in full k-point grid
   LINTERFAST=   F  fast interpolation
   KINTER  =     0    interpolate to denser k-point grid
   CSHIFT  =0.1000    complex shift for real part using Kramers Kronig
   OMEGAMAX=  -1.0    maximum frequency
   DEG_THRESHOLD= 0.2000000E-02 threshold for treating states as degnerate
   RTIME   =   -0.100 relaxation time in fs
  (WPLASMAI=    0.000 imaginary part of plasma frequency in eV, 0.658/RTIME)
   DFIELD  = 0.0000000 0.0000000 0.0000000 field for delta impulse in time
 
 Orbital magnetization related:
   ORBITALMAG=     F  switch on orbital magnetization
   LCHIMAG   =     F  perturbation theory with respect to B field
   DQ        =  0.001000  dq finite difference perturbation B field
   LLRAUG    =     F  two centre corrections for induced B field



--------------------------------------------------------------------------------------------------------


 Static calculation
 charge density and potential will be updated during run
 non-spin polarized calculation
 Variant of blocked Davidson
 Davidson routine will perform the subspace rotation
 perform sub-space diagonalisation
    after iterative eigenvector-optimisation
 modified Broyden-mixing scheme, WC =      100.0
 initial mixing is a Kerker type mixing with AMIX =  0.4000 and BMIX =      1.0000
 Hartree-type preconditioning will be used
 using additional bands           16
 reciprocal scheme for non local part
 use partial core corrections
 calculate Harris-corrections to forces 
   (improved forces if not selfconsistent)
 use gradient corrections 
 use of overlap-Matrix (Vanderbilt PP)
 Methfessel and Paxton  Order N= 1 SIGMA  =   0.20


--------------------------------------------------------------------------------------------------------


  energy-cutoff  :      350.00
  volume of cell :      824.13
      direct lattice vectors                 reciprocal lattice vectors
     5.557859300  0.000000000  0.000000000     0.179925390 -0.103879972  0.000000000
     2.778929650  4.813247345  0.000000000     0.000000000  0.207759944  0.000000000
     0.000000000  0.000000000 30.806959674     0.000000000  0.000000000  0.032460198

  length of vectors
     5.557859300  5.557859300 30.806959674     0.207759944  0.207759944  0.032460198


 
 k-points in units of 2pi/SCALE and weight: KPOINTS created by Atomic Simulation Env
   0.01124534  0.00649250  0.00000000       0.021
   0.00000000  0.01298500  0.00000000       0.010
   0.03373601 -0.00649250  0.00000000       0.021
   0.02249067  0.02596999  0.00000000       0.021
  -0.01124534  0.03246249  0.00000000       0.021
   0.05622668 -0.01947749  0.00000000       0.021
   0.04498135  0.03895499  0.00000000       0.021
  -0.01124534  0.05843248  0.00000000       0.021
   0.07871736 -0.03246249  0.00000000       0.021
   0.06747202  0.05193999  0.00000000       0.021
  -0.01124534  0.08440248  0.00000000       0.021
  -0.07871736  0.05843248  0.00000000       0.021
   0.08996269 -0.14283496  0.00000000       0.021
  -0.01124534  0.11037247  0.00000000       0.021
  -0.05622668  0.04544749  0.00000000       0.021
  -0.06747202 -0.02596999  0.00000000       0.021
  -0.01124534 -0.07141748  0.00000000       0.021
  -0.03373601  0.03246249  0.00000000       0.021
  -0.04498135 -0.01298500  0.00000000       0.021
  -0.01124534 -0.04544749  0.00000000       0.021
  -0.01124534  0.01947749  0.00000000       0.021
  -0.02249067  0.00000000  0.00000000       0.010
   0.03373601  0.01947749  0.00000000       0.021
   0.00000000  0.03895499  0.00000000       0.010
   0.05622668  0.00649250  0.00000000       0.021
   0.02249067  0.05193999  0.00000000       0.021
  -0.03373601  0.04544749  0.00000000       0.021
   0.07871736 -0.00649250  0.00000000       0.021
   0.04498135  0.06492498  0.00000000       0.021
  -0.03373601  0.07141748  0.00000000       0.021
  -0.07871736  0.08440248  0.00000000       0.021
   0.06747202 -0.12984997  0.00000000       0.021
  -0.03373601  0.09738747  0.00000000       0.021
  -0.05622668  0.07141748  0.00000000       0.021
   0.08996269 -0.11686497  0.00000000       0.021
  -0.03373601  0.12335747  0.00000000       0.021
  -0.03373601  0.05843248  0.00000000       0.021
  -0.06747202  0.00000000  0.00000000       0.010
   0.05622668  0.03246249  0.00000000       0.021
   0.00000000  0.06492498  0.00000000       0.010
   0.07871736  0.01947749  0.00000000       0.021
   0.02249067  0.07790998  0.00000000       0.021
  -0.05622668  0.05843248  0.00000000       0.021
  -0.07871736  0.11037247  0.00000000       0.021
   0.04498135 -0.11686497  0.00000000       0.021
  -0.05622668  0.08440248  0.00000000       0.021
  -0.05622668  0.09738747  0.00000000       0.021
   0.06747202 -0.10387997  0.00000000       0.010
   0.07871736  0.04544749  0.00000000       0.021
   0.00000000  0.09089498  0.00000000       0.010
  -0.07871736  0.13634246  0.00000000       0.021
   0.02249067 -0.10387997  0.00000000       0.010
 
 k-points in reciprocal lattice and weights: KPOINTS created by Atomic Simulation Env
   0.06250000  0.06250000  0.00000000       0.021
   0.00000000  0.06250000  0.00000000       0.010
   0.18750000  0.06250000  0.00000000       0.021
   0.12500000  0.18750000  0.00000000       0.021
  -0.06250000  0.12500000  0.00000000       0.021
   0.31250000  0.06250000  0.00000000       0.021
   0.25000000  0.31250000  0.00000000       0.021
  -0.06250000  0.25000000  0.00000000       0.021
   0.43750000  0.06250000  0.00000000       0.021
   0.37500000  0.43750000  0.00000000       0.021
  -0.06250000  0.37500000  0.00000000       0.021
  -0.43750000  0.06250000  0.00000000       0.021
   0.50000000 -0.43750000  0.00000000       0.021
  -0.06250000  0.50000000  0.00000000       0.021
  -0.31250000  0.06250000  0.00000000       0.021
  -0.37500000 -0.31250000  0.00000000       0.021
  -0.06250000 -0.37500000  0.00000000       0.021
  -0.18750000  0.06250000  0.00000000       0.021
  -0.25000000 -0.18750000  0.00000000       0.021
  -0.06250000 -0.25000000  0.00000000       0.021
  -0.06250000  0.06250000  0.00000000       0.021
  -0.12500000 -0.06250000  0.00000000       0.010
   0.18750000  0.18750000  0.00000000       0.021
   0.00000000  0.18750000  0.00000000       0.010
   0.31250000  0.18750000  0.00000000       0.021
   0.12500000  0.31250000  0.00000000       0.021
  -0.18750000  0.12500000  0.00000000       0.021
   0.43750000  0.18750000  0.00000000       0.021
   0.25000000  0.43750000  0.00000000       0.021
  -0.18750000  0.25000000  0.00000000       0.021
  -0.43750000  0.18750000  0.00000000       0.021
   0.37500000 -0.43750000  0.00000000       0.021
  -0.18750000  0.37500000  0.00000000       0.021
  -0.31250000  0.18750000  0.00000000       0.021
   0.50000000 -0.31250000  0.00000000       0.021
  -0.18750000  0.50000000  0.00000000       0.021
  -0.18750000  0.18750000  0.00000000       0.021
  -0.37500000 -0.18750000  0.00000000       0.010
   0.31250000  0.31250000  0.00000000       0.021
   0.00000000  0.31250000  0.00000000       0.010
   0.43750000  0.31250000  0.00000000       0.021
   0.12500000  0.43750000  0.00000000       0.021
  -0.31250000  0.12500000  0.00000000       0.021
  -0.43750000  0.31250000  0.00000000       0.021
   0.25000000 -0.43750000  0.00000000       0.021
  -0.31250000  0.25000000  0.00000000       0.021
  -0.31250000  0.31250000  0.00000000       0.021
   0.37500000 -0.31250000  0.00000000       0.010
   0.43750000  0.43750000  0.00000000       0.021
   0.00000000  0.43750000  0.00000000       0.010
  -0.43750000  0.43750000  0.00000000       0.021
   0.12500000 -0.43750000  0.00000000       0.010
 
 position of ions in fractional coordinates (direct lattice) 
   0.00000000  0.00000000  0.38952237
   0.50000000  0.00000000  0.38952237
   0.00000000  0.50000000  0.38952237
   0.50000000  0.50000000  0.38952237
   0.16666667  0.16666667  0.46468540
   0.66666667  0.16666667  0.46468540
   0.16666667  0.66666667  0.46468540
   0.66666667  0.66666667  0.46468540
   0.83333333  0.33333333  0.53920296
   0.33333333  0.33333333  0.53920296
   0.83333333  0.83333333  0.53920296
   0.33333333  0.83333333  0.53920296
   0.00000000  0.00000000  0.61486043
   0.00000000  0.50000000  0.61486043
   0.50000000  0.50000000  0.61486043
   0.50000000  0.00000000  0.61486043
 
 position of ions in cartesian coordinates  (Angst):
   0.00000000  0.00000000 12.00000000
   2.77892965  0.00000000 12.00000000
   1.38946483  2.40662367 12.00000000
   4.16839448  2.40662367 12.00000000
   1.38946483  0.80220789 14.31554441
   4.16839448  0.80220789 14.31554441
   2.77892965  3.20883156 14.31554441
   5.55785930  3.20883156 14.31554441
   5.55785930  1.60441578 16.61120399
   2.77892965  1.60441578 16.61120399
   6.94732413  4.01103945 16.61120399
   4.16839448  4.01103945 16.61120399
   0.00000000  0.00000000 18.94198048
   1.38946483  2.40662367 18.94198048
   4.16839448  2.40662367 18.94198048
   2.77892965  0.00000000 18.94198048
 


--------------------------------------------------------------------------------------------------------


 k-point  1 :   0.0625 0.0625 0.0000  plane waves:   12325
 k-point  2 :   0.0000 0.0625 0.0000  plane waves:   12325
 k-point  3 :   0.1875 0.0625 0.0000  plane waves:   12294
 k-point  4 :   0.1250 0.1875 0.0000  plane waves:   12294
 k-point  5 :  -0.0625 0.1250 0.0000  plane waves:   12294
 k-point  6 :   0.3125 0.0625 0.0000  plane waves:   12263
 k-point  7 :   0.2500 0.3125 0.0000  plane waves:   12263
 k-point  8 :  -0.0625 0.2500 0.0000  plane waves:   12263
 k-point  9 :   0.4375 0.0625 0.0000  plane waves:   12221
 k-point 10 :   0.3750 0.4375 0.0000  plane waves:   12221
 k-point 11 :  -0.0625 0.3750 0.0000  plane waves:   12221
 k-point 12 :  -0.4375 0.0625 0.0000  plane waves:   12211
 k-point 13 :   0.5000-0.4375 0.0000  plane waves:   12211
 k-point 14 :  -0.0625 0.5000 0.0000  plane waves:   12211
 k-point 15 :  -0.3125 0.0625 0.0000  plane waves:   12242
 k-point 16 :  -0.3750-0.3125 0.0000  plane waves:   12242
 k-point 17 :  -0.0625-0.3750 0.0000  plane waves:   12242
 k-point 18 :  -0.1875 0.0625 0.0000  plane waves:   12280
 k-point 19 :  -0.2500-0.1875 0.0000  plane waves:   12280
 k-point 20 :  -0.0625-0.2500 0.0000  plane waves:   12280
 k-point 21 :  -0.0625 0.0625 0.0000  plane waves:   12329
 k-point 22 :  -0.1250-0.0625 0.0000  plane waves:   12329
 k-point 23 :   0.1875 0.1875 0.0000  plane waves:   12277
 k-point 24 :   0.0000 0.1875 0.0000  plane waves:   12277
 k-point 25 :   0.3125 0.1875 0.0000  plane waves:   12288
 k-point 26 :   0.1250 0.3125 0.0000  plane waves:   12288
 k-point 27 :  -0.1875 0.1250 0.0000  plane waves:   12288
 k-point 28 :   0.4375 0.1875 0.0000  plane waves:   12234
 k-point 29 :   0.2500 0.4375 0.0000  plane waves:   12234
 k-point 30 :  -0.1875 0.2500 0.0000  plane waves:   12234
 k-point 31 :  -0.4375 0.1875 0.0000  plane waves:   12216
 k-point 32 :   0.3750-0.4375 0.0000  plane waves:   12216
 k-point 33 :  -0.1875 0.3750 0.0000  plane waves:   12216
 k-point 34 :  -0.3125 0.1875 0.0000  plane waves:   12215
 k-point 35 :   0.5000-0.3125 0.0000  plane waves:   12215
 k-point 36 :  -0.1875 0.5000 0.0000  plane waves:   12215
 k-point 37 :  -0.1875 0.1875 0.0000  plane waves:   12289
 k-point 38 :  -0.3750-0.1875 0.0000  plane waves:   12289
 k-point 39 :   0.3125 0.3125 0.0000  plane waves:   12275
 k-point 40 :   0.0000 0.3125 0.0000  plane waves:   12275
 k-point 41 :   0.4375 0.3125 0.0000  plane waves:   12239
 k-point 42 :   0.1250 0.4375 0.0000  plane waves:   12239
 k-point 43 :  -0.3125 0.1250 0.0000  plane waves:   12239
 k-point 44 :  -0.4375 0.3125 0.0000  plane waves:   12235
 k-point 45 :   0.2500-0.4375 0.0000  plane waves:   12235
 k-point 46 :  -0.3125 0.2500 0.0000  plane waves:   12235
 k-point 47 :  -0.3125 0.3125 0.0000  plane waves:   12232
 k-point 48 :   0.3750-0.3125 0.0000  plane waves:   12232
 k-point 49 :   0.4375 0.4375 0.0000  plane waves:   12200
 k-point 50 :   0.0000 0.4375 0.0000  plane waves:   12200
 k-point 51 :  -0.4375 0.4375 0.0000  plane waves:   12214
 k-point 52 :   0.1250-0.4375 0.0000  plane waves:   12214

 maximum and minimum number of plane-waves per node :     12329    12200

 maximum number of plane-waves:     12329
 maximum index in each direction: 
   IXMAX=    8   IYMAX=    8   IZMAX=   46
   IXMIN=   -8   IYMIN=   -8   IZMIN=  -46


 serial   3D FFT for wavefunctions
 parallel 3D FFT for charge:
    minimum data exchange during FFTs selected (reduces bandwidth)


 total amount of memory used by VASP MPI-rank0   362189. kBytes
=======================================================================

   base      :      30000. kBytes
   nonl-proj :     280273. kBytes
   fftplans  :       2015. kBytes
   grid      :       7641. kBytes
   one-center:        248. kBytes
   wavefun   :      42012. kBytes
 
     INWAV:  cpu time    0.0000: real time    0.0000
 Broyden mixing: mesh for mixing (old mesh)
   NGX = 17   NGY = 17   NGZ = 93
  (NGX  = 56   NGY  = 56   NGZ  =288)
  gives a total of  26877 points

 initial charge density was supplied:
 charge density of overlapping atoms calculated
 number of electron     160.0000000 magnetization 
 keeping initial charge density in first step


--------------------------------------------------------------------------------------------------------


 Maximum index for augmentation-charges          728 (set IRDMAX)


--------------------------------------------------------------------------------------------------------


 First call to EWALD:  gamma=   0.189
 Maximum number of real-space cells 5x 5x 1
 Maximum number of reciprocal cells 2x 2x 8

    FEWALD:  cpu time    0.0012: real time    0.0012


--------------------------------------- Iteration      1(   1)  ---------------------------------------


    POTLOK:  cpu time    0.0216: real time    0.0291
    SETDIJ:  cpu time    0.0024: real time    0.0024
     EDDAV:  cpu time   10.8040: real time   10.8421
       DOS:  cpu time    0.0023: real time    0.0024
    --------------------------------------------
      LOOP:  cpu time   10.8304: real time   10.8761

 eigenvalue-minimisations  :  9984
 total energy-change (2. order) : 0.9778559E+03  (-0.5547559E+04)
 number of electron     160.0000000 magnetization 
 augmentation part      160.0000000 magnetization 

 Free energy of the ion-electron system (eV)
  ---------------------------------------------------
  alpha Z        PSCENC =       303.52543553
  Ewald energy   TEWEN  =     98439.91766519
  -Hartree energ DENC   =   -110511.43137500
  -exchange      EXHF   =         0.00000000
  -V(xc)+E(xc)   XCENC  =        46.26589393
  PAW double counting   =     11171.21661038   -10711.84633960
  entropy T*S    EENTRO =        -0.00372318
  eigenvalues    EBANDS =       546.51755521
  atomic energy  EATOM  =     11693.69420960
  Solvation  Ediel_sol  =         0.00000000
  ---------------------------------------------------
  free energy    TOTEN  =       977.85593206 eV

  energy without entropy =      977.85965524  energy(sigma->0) =      977.85717312


--------------------------------------------------------------------------------------------------------




--------------------------------------- Iteration      1(   2)  ---------------------------------------


     EDDAV:  cpu time   14.6805: real time   14.7256
       DOS:  cpu time    0.0014: real time    0.0014
    --------------------------------------------
      LOOP:  cpu time   14.6819: real time   14.7270

 eigenvalue-minimisations  : 14616
 total energy-change (2. order) :-0.1017016E+04  (-0.9860824E+03)
 number of electron     160.0000000 magnetization 
 augmentation part      160.0000000 magnetization 

 Free energy of the ion-electron system (eV)
  ---------------------------------------------------
  alpha Z        PSCENC =       303.52543553
  Ewald energy   TEWEN  =     98439.91766519
  -Hartree energ DENC   =   -110511.43137500
  -exchange      EXHF   =         0.00000000
  -V(xc)+E(xc)   XCENC  =        46.26589393
  PAW double counting   =     11171.21661038   -10711.84633960
  entropy T*S    EENTRO =         0.00540413
  eigenvalues    EBANDS =      -470.50804716
  atomic energy  EATOM  =     11693.69420960
  Solvation  Ediel_sol  =         0.00000000
  ---------------------------------------------------
  free energy    TOTEN  =       -39.16054301 eV

  energy without entropy =      -39.16594714  energy(sigma->0) =      -39.16234439


--------------------------------------------------------------------------------------------------------




--------------------------------------- Iteration      1(   3)  ---------------------------------------


     EDDAV:  cpu time   12.8156: real time   12.8556
       DOS:  cpu time    0.0015: real time    0.0015
    --------------------------------------------
      LOOP:  cpu time   12.8171: real time   12.8571

 eigenvalue-minimisations  : 12456
 total energy-change (2. order) :-0.5785821E+02  (-0.5604911E+02)
 number of electron     160.0000000 magnetization 
 augmentation part      160.0000000 magnetization 

 Free energy of the ion-electron system (eV)
  ---------------------------------------------------
  alpha Z        PSCENC =       303.52543553
  Ewald energy   TEWEN  =     98439.91766519
  -Hartree energ DENC   =   -110511.43137500
  -exchange      EXHF   =         0.00000000
  -V(xc)+E(xc)   XCENC  =        46.26589393
  PAW double counting   =     11171.21661038   -10711.84633960
  entropy T*S    EENTRO =        -0.02678468
  eigenvalues    EBANDS =      -528.33406870
  atomic energy  EATOM  =     11693.69420960
  Solvation  Ediel_sol  =         0.00000000
  ---------------------------------------------------
  free energy    TOTEN  =       -97.01875335 eV

  energy without entropy =      -96.99196868  energy(sigma->0) =      -97.00982513


--------------------------------------------------------------------------------------------------------




--------------------------------------- Iteration      1(   4)  ---------------------------------------


     EDDAV:  cpu time   14.2570: real time   14.3010
       DOS:  cpu time    0.0015: real time    0.0015
    --------------------------------------------
      LOOP:  cpu time   14.2585: real time   14.3025

 eigenvalue-minimisations  : 14184
 total energy-change (2. order) :-0.1211945E+01  (-0.1206641E+01)
 number of electron     160.0000000 magnetization 
 augmentation part      160.0000000 magnetization 

 Free energy of the ion-electron system (eV)
  ---------------------------------------------------
  alpha Z        PSCENC =       303.52543553
  Ewald energy   TEWEN  =     98439.91766519
  -Hartree energ DENC   =   -110511.43137500
  -exchange      EXHF   =         0.00000000
  -V(xc)+E(xc)   XCENC  =        46.26589393
  PAW double counting   =     11171.21661038   -10711.84633960
  entropy T*S    EENTRO =        -0.02635201
  eigenvalues    EBANDS =      -529.54644608
  atomic energy  EATOM  =     11693.69420960
  Solvation  Ediel_sol  =         0.00000000
  ---------------------------------------------------
  free energy    TOTEN  =       -98.23069806 eV

  energy without entropy =      -98.20434605  energy(sigma->0) =      -98.22191406


--------------------------------------------------------------------------------------------------------




--------------------------------------- Iteration      1(   5)  ---------------------------------------


     EDDAV:  cpu time   15.0487: real time   15.0976
       DOS:  cpu time    0.0016: real time    0.0016
    CHARGE:  cpu time    0.3303: real time    0.3312
    MIXING:  cpu time    0.0010: real time    0.0011
    --------------------------------------------
      LOOP:  cpu time   15.3815: real time   15.4314

 eigenvalue-minimisations  : 15096
 total energy-change (2. order) :-0.3270815E-01  (-0.3269382E-01)
 number of electron     160.0000089 magnetization 
 augmentation part       46.9826259 magnetization 

 Broyden mixing:
  rms(total) = 0.41704E+01    rms(broyden)= 0.41703E+01
  rms(prec ) = 0.41996E+01
  weight for this iteration     100.00

 Free energy of the ion-electron system (eV)
  ---------------------------------------------------
  alpha Z        PSCENC =       303.52543553
  Ewald energy   TEWEN  =     98439.91766519
  -Hartree energ DENC   =   -110511.43137500
  -exchange      EXHF   =         0.00000000
  -V(xc)+E(xc)   XCENC  =        46.26589393
  PAW double counting   =     11171.21661038   -10711.84633960
  entropy T*S    EENTRO =        -0.02628505
  eigenvalues    EBANDS =      -529.57922119
  atomic energy  EATOM  =     11693.69420960
  Solvation  Ediel_sol  =         0.00000000
  ---------------------------------------------------
  free energy    TOTEN  =       -98.26340621 eV

  energy without entropy =      -98.23712116  energy(sigma->0) =      -98.25464453


--------------------------------------------------------------------------------------------------------




--------------------------------------- Iteration      1(   6)  ---------------------------------------


    POTLOK:  cpu time    0.0191: real time    0.0195
    SETDIJ:  cpu time    0.0022: real time    0.0022
     EDDAV:  cpu time   12.2055: real time   12.2346
       DOS:  cpu time    0.0014: real time    0.0014
    CHARGE:  cpu time    0.3360: real time    0.3368
    MIXING:  cpu time    0.0009: real time    0.0009
    --------------------------------------------
      LOOP:  cpu time   12.5652: real time   12.5955

 eigenvalue-minimisations  : 11808
 total energy-change (2. order) : 0.3917194E+01  (-0.2961968E+01)
 number of electron     160.0000084 magnetization 
 augmentation part       49.5475258 magnetization 

 Broyden mixing:
  rms(total) = 0.30278E+01    rms(broyden)= 0.30278E+01
  rms(prec ) = 0.31219E+01
  weight for this iteration     100.00

 eigenvalues of (default mixing * dielectric matrix)
  average eigenvalue GAMMA=   1.3267
  1.3267

 Free energy of the ion-electron system (eV)
  ---------------------------------------------------
  alpha Z        PSCENC =       303.52543553
  Ewald energy   TEWEN  =     98439.91766519
  -Hartree energ DENC   =   -110321.93912893
  -exchange      EXHF   =         0.00000000
  -V(xc)+E(xc)   XCENC  =        42.09091490
  PAW double counting   =     12324.32816974   -11888.21387706
  entropy T*S    EENTRO =        -0.02008675
  eigenvalues    EBANDS =      -687.72951474
  atomic energy  EATOM  =     11693.69420960
  Solvation  Ediel_sol  =         0.00000000
  ---------------------------------------------------
  free energy    TOTEN  =       -94.34621250 eV

  energy without entropy =      -94.32612576  energy(sigma->0) =      -94.33951692


--------------------------------------------------------------------------------------------------------




--------------------------------------- Iteration      1(   7)  ---------------------------------------


    POTLOK:  cpu time    0.0168: real time    0.0170
    SETDIJ:  cpu time    0.0022: real time    0.0022
     EDDAV:  cpu time   14.6849: real time   14.7213
       DOS:  cpu time    0.0014: real time    0.0014
    CHARGE:  cpu time    0.3300: real time    0.3308
    MIXING:  cpu time    0.0010: real time    0.0010
    --------------------------------------------
      LOOP:  cpu time   15.0363: real time   15.0737

 eigenvalue-minimisations  : 14760
 total energy-change (2. order) :-0.2947761E+02  (-0.2294028E+02)
 number of electron     160.0000099 magnetization 
 augmentation part       48.7992186 magnetization 

 Broyden mixing:
  rms(total) = 0.49184E+01    rms(broyden)= 0.49183E+01
  rms(prec ) = 0.55090E+01
  weight for this iteration     100.00

 eigenvalues of (default mixing * dielectric matrix)
  average eigenvalue GAMMA=   1.1328
  2.0316  0.2340

 Free energy of the ion-electron system (eV)
  ---------------------------------------------------
  alpha Z        PSCENC =       303.52543553
  Ewald energy   TEWEN  =     98439.91766519
  -Hartree energ DENC   =   -110500.63262430
  -exchange      EXHF   =         0.00000000
  -V(xc)+E(xc)   XCENC  =        41.00669837
  PAW double counting   =     13221.40538555   -12795.67501638
  entropy T*S    EENTRO =         0.00522220
  eigenvalues    EBANDS =      -527.07079664
  atomic energy  EATOM  =     11693.69420960
  Solvation  Ediel_sol  =         0.00000000
  ---------------------------------------------------
  free energy    TOTEN  =      -123.82382088 eV

  energy without entropy =     -123.82904308  energy(sigma->0) =     -123.82556162


--------------------------------------------------------------------------------------------------------




--------------------------------------- Iteration      1(   8)  ---------------------------------------


    POTLOK:  cpu time    0.0176: real time    0.0234
    SETDIJ:  cpu time    0.0022: real time    0.0022
     EDDAV:  cpu time   15.1028: real time   15.1459
       DOS:  cpu time    0.0015: real time    0.0015
    CHARGE:  cpu time    0.3323: real time    0.3331
    MIXING:  cpu time    0.0009: real time    0.0009
    --------------------------------------------
      LOOP:  cpu time   15.4572: real time   15.5070

 eigenvalue-minimisations  : 15240
 total energy-change (2. order) : 0.2255959E+02  (-0.8573599E+01)
 number of electron     160.0000104 magnetization 
 augmentation part       50.1380950 magnetization 

 Broyden mixing:
  rms(total) = 0.26116E+01    rms(broyden)= 0.26115E+01
  rms(prec ) = 0.30502E+01
  weight for this iteration     100.00

 eigenvalues of (default mixing * dielectric matrix)
  average eigenvalue GAMMA=   0.9367
  2.1924  0.3089  0.3089

 Free energy of the ion-electron system (eV)
  ---------------------------------------------------
  alpha Z        PSCENC =       303.52543553
  Ewald energy   TEWEN  =     98439.91766519
  -Hartree energ DENC   =   -110358.50579293
  -exchange      EXHF   =         0.00000000
  -V(xc)+E(xc)   XCENC  =        40.05556954
  PAW double counting   =     13990.04409578   -13574.46618183
  entropy T*S    EENTRO =         0.01286061
  eigenvalues    EBANDS =      -635.54209714
  atomic energy  EATOM  =     11693.69420960
  Solvation  Ediel_sol  =         0.00000000
  ---------------------------------------------------
  free energy    TOTEN  =      -101.26423564 eV

  energy without entropy =     -101.27709626  energy(sigma->0) =     -101.26852251


--------------------------------------------------------------------------------------------------------




--------------------------------------- Iteration      1(   9)  ---------------------------------------


    POTLOK:  cpu time    0.0179: real time    0.0186
    SETDIJ:  cpu time    0.0024: real time    0.0024
     EDDAV:  cpu time   13.6740: real time   13.7142
       DOS:  cpu time    0.0015: real time    0.0015
    CHARGE:  cpu time    0.3306: real time    0.3314
    MIXING:  cpu time    0.0008: real time    0.0008
    --------------------------------------------
      LOOP:  cpu time   14.0272: real time   14.0689

 eigenvalue-minimisations  : 13536
 total energy-change (2. order) :-0.1749741E+01  (-0.9220517E+01)
 number of electron     160.0000084 magnetization 
 augmentation part       50.2926636 magnetization 

 Broyden mixing:
  rms(total) = 0.28081E+01    rms(broyden)= 0.28080E+01
  rms(prec ) = 0.37476E+01
  weight for this iteration     100.00

 eigenvalues of (default mixing * dielectric matrix)
  average eigenvalue GAMMA=   0.8685
  2.2723  0.7613  0.2833  0.1570

 Free energy of the ion-electron system (eV)
  ---------------------------------------------------
  alpha Z        PSCENC =       303.52543553
  Ewald energy   TEWEN  =     98439.91766519
  -Hartree energ DENC   =   -110317.86320846
  -exchange      EXHF   =         0.00000000
  -V(xc)+E(xc)   XCENC  =        40.07191271
  PAW double counting   =     14190.13361509   -13776.12958097
  entropy T*S    EENTRO =         0.02562847
  eigenvalues    EBANDS =      -676.38965420
  atomic energy  EATOM  =     11693.69420960
  Solvation  Ediel_sol  =         0.00000000
  ---------------------------------------------------
  free energy    TOTEN  =      -103.01397704 eV

  energy without entropy =     -103.03960551  energy(sigma->0) =     -103.02251987


--------------------------------------------------------------------------------------------------------




--------------------------------------- Iteration      1(  10)  ---------------------------------------


    POTLOK:  cpu time    0.0173: real time    0.0201
    SETDIJ:  cpu time    0.0023: real time    0.0023
     EDDAV:  cpu time   16.0278: real time   16.0659
       DOS:  cpu time    0.0014: real time    0.0014
    CHARGE:  cpu time    0.3275: real time    0.3283
    MIXING:  cpu time    0.0008: real time    0.0008
    --------------------------------------------
      LOOP:  cpu time   16.3771: real time   16.4188

 eigenvalue-minimisations  : 16128
 total energy-change (2. order) : 0.1775976E+01  (-0.8086211E+01)
 number of electron     160.0000091 magnetization 
 augmentation part       50.2610671 magnetization 

 Broyden mixing:
  rms(total) = 0.25002E+01    rms(broyden)= 0.25001E+01
  rms(prec ) = 0.31583E+01
  weight for this iteration     100.00

 eigenvalues of (default mixing * dielectric matrix)
  average eigenvalue GAMMA=   0.7649
  2.3586  0.8671  0.2399  0.2399  0.1190

 Free energy of the ion-electron system (eV)
  ---------------------------------------------------
  alpha Z        PSCENC =       303.52543553
  Ewald energy   TEWEN  =     98439.91766519
  -Hartree energ DENC   =   -110312.74540352
  -exchange      EXHF   =         0.00000000
  -V(xc)+E(xc)   XCENC  =        40.13691436
  PAW double counting   =     14353.19913245   -13939.51153185
  entropy T*S    EENTRO =        -0.03101384
  eigenvalues    EBANDS =      -679.42340863
  atomic energy  EATOM  =     11693.69420960
  Solvation  Ediel_sol  =         0.00000000
  ---------------------------------------------------
  free energy    TOTEN  =      -101.23800072 eV

  energy without entropy =     -101.20698688  energy(sigma->0) =     -101.22766277


--------------------------------------------------------------------------------------------------------




--------------------------------------- Iteration      1(  11)  ---------------------------------------


    POTLOK:  cpu time    0.0173: real time    0.0191
    SETDIJ:  cpu time    0.0023: real time    0.0023
     EDDAV:  cpu time   14.0209: real time   14.0553
       DOS:  cpu time    0.0017: real time    0.0017
    CHARGE:  cpu time    0.3636: real time    0.3645
    MIXING:  cpu time    0.0010: real time    0.0010
    --------------------------------------------
      LOOP:  cpu time   14.4067: real time   14.4438

 eigenvalue-minimisations  : 13920
 total energy-change (2. order) : 0.8258799E+01  (-0.2857438E+01)
 number of electron     160.0000089 magnetization 
 augmentation part       50.2703776 magnetization 

 Broyden mixing:
  rms(total) = 0.98838E+00    rms(broyden)= 0.98832E+00
  rms(prec ) = 0.10964E+01
  weight for this iteration     100.00

 eigenvalues of (default mixing * dielectric matrix)
  average eigenvalue GAMMA=   0.6870
  2.1721  0.8024  0.4250  0.2986  0.2986  0.1253

 Free energy of the ion-electron system (eV)
  ---------------------------------------------------
  alpha Z        PSCENC =       303.52543553
  Ewald energy   TEWEN  =     98439.91766519
  -Hartree energ DENC   =   -110318.04091379
  -exchange      EXHF   =         0.00000000
  -V(xc)+E(xc)   XCENC  =        40.26709015
  PAW double counting   =     14467.61589327   -14054.40117198
  entropy T*S    EENTRO =        -0.04598196
  eigenvalues    EBANDS =      -665.51142732
  atomic energy  EATOM  =     11693.69420960
  Solvation  Ediel_sol  =         0.00000000
  ---------------------------------------------------
  free energy    TOTEN  =       -92.97920131 eV

  energy without entropy =      -92.93321935  energy(sigma->0) =      -92.96387399


--------------------------------------------------------------------------------------------------------




--------------------------------------- Iteration      1(  12)  ---------------------------------------


    POTLOK:  cpu time    0.0189: real time    0.0241
    SETDIJ:  cpu time    0.0022: real time    0.0022
     EDDAV:  cpu time   14.8958: real time   14.9312
       DOS:  cpu time    0.0015: real time    0.0015
    CHARGE:  cpu time    0.3604: real time    0.3613
    MIXING:  cpu time    0.0009: real time    0.0009
    --------------------------------------------
      LOOP:  cpu time   15.2798: real time   15.3213

 eigenvalue-minimisations  : 15000
 total energy-change (2. order) :-0.1011504E+00  (-0.8127530E+00)
 number of electron     160.0000094 magnetization 
 augmentation part       50.2607724 magnetization 

 Broyden mixing:
  rms(total) = 0.11105E+01    rms(broyden)= 0.11105E+01
  rms(prec ) = 0.12874E+01
  weight for this iteration     100.00

 eigenvalues of (default mixing * dielectric matrix)
  average eigenvalue GAMMA=   0.6450
  2.0905  0.7218  0.7218  0.3748  0.2420  0.2420  0.1225

 Free energy of the ion-electron system (eV)
  ---------------------------------------------------
  alpha Z        PSCENC =       303.52543553
  Ewald energy   TEWEN  =     98439.91766519
  -Hartree energ DENC   =   -110313.51075328
  -exchange      EXHF   =         0.00000000
  -V(xc)+E(xc)   XCENC  =        40.32299836
  PAW double counting   =     14372.75432000   -13958.66405818
  entropy T*S    EENTRO =        -0.02362350
  eigenvalues    EBANDS =      -671.09654548
  atomic energy  EATOM  =     11693.69420960
  Solvation  Ediel_sol  =         0.00000000
  ---------------------------------------------------
  free energy    TOTEN  =       -93.08035175 eV

  energy without entropy =      -93.05672825  energy(sigma->0) =      -93.07247725


--------------------------------------------------------------------------------------------------------




--------------------------------------- Iteration      1(  13)  ---------------------------------------


    POTLOK:  cpu time    0.0174: real time    0.0176
    SETDIJ:  cpu time    0.0022: real time    0.0022
     EDDAV:  cpu time   14.2899: real time   14.3238
       DOS:  cpu time    0.0016: real time    0.0016
    CHARGE:  cpu time    0.4020: real time    0.4029
    MIXING:  cpu time    0.0010: real time    0.0010
    --------------------------------------------
      LOOP:  cpu time   14.7140: real time   14.7491

 eigenvalue-minimisations  : 14280
 total energy-change (2. order) : 0.9408506E+00  (-0.7272005E+00)
 number of electron     160.0000091 magnetization 
 augmentation part       50.1674275 magnetization 

 Broyden mixing:
  rms(total) = 0.47253E+00    rms(broyden)= 0.47245E+00
  rms(prec ) = 0.50694E+00
  weight for this iteration     100.00

 eigenvalues of (default mixing * dielectric matrix)
  average eigenvalue GAMMA=   0.6764
  2.1451  1.0693  0.6373  0.6373  0.2922  0.2922  0.2151  0.1231

 Free energy of the ion-electron system (eV)
  ---------------------------------------------------
  alpha Z        PSCENC =       303.52543553
  Ewald energy   TEWEN  =     98439.91766519
  -Hartree energ DENC   =   -110320.85484236
  -exchange      EXHF   =         0.00000000
  -V(xc)+E(xc)   XCENC  =        40.47116249
  PAW double counting   =     14326.64338776   -13911.99562363
  entropy T*S    EENTRO =        -0.04544751
  eigenvalues    EBANDS =      -663.49544826
  atomic energy  EATOM  =     11693.69420960
  Solvation  Ediel_sol  =         0.00000000
  ---------------------------------------------------
  free energy    TOTEN  =       -92.13950119 eV

  energy without entropy =      -92.09405368  energy(sigma->0) =      -92.12435202


--------------------------------------------------------------------------------------------------------




--------------------------------------- Iteration      1(  14)  ---------------------------------------


    POTLOK:  cpu time    0.0171: real time    0.0201
    SETDIJ:  cpu time    0.0022: real time    0.0022
     EDDAV:  cpu time   12.2964: real time   12.3256
       DOS:  cpu time    0.0016: real time    0.0016
    CHARGE:  cpu time    0.3717: real time    0.3726
    MIXING:  cpu time    0.0011: real time    0.0011
    --------------------------------------------
      LOOP:  cpu time   12.6902: real time   12.7233

 eigenvalue-minimisations  : 11904
 total energy-change (2. order) : 0.7779266E-01  (-0.1146963E+00)
 number of electron     160.0000093 magnetization 
 augmentation part       50.1063025 magnetization 

 Broyden mixing:
  rms(total) = 0.35075E+00    rms(broyden)= 0.35071E+00
  rms(prec ) = 0.36709E+00
  weight for this iteration     100.00

 eigenvalues of (default mixing * dielectric matrix)
  average eigenvalue GAMMA=   0.6292
  2.1058  1.0405  0.6986  0.6986  0.2937  0.2937  0.1229  0.2046  0.2046

 Free energy of the ion-electron system (eV)
  ---------------------------------------------------
  alpha Z        PSCENC =       303.52543553
  Ewald energy   TEWEN  =     98439.91766519
  -Hartree energ DENC   =   -110332.44300400
  -exchange      EXHF   =         0.00000000
  -V(xc)+E(xc)   XCENC  =        40.45733228
  PAW double counting   =     14336.14535873   -13921.69313395
  entropy T*S    EENTRO =        -0.03432858
  eigenvalues    EBANDS =      -651.63124333
  atomic energy  EATOM  =     11693.69420960
  Solvation  Ediel_sol  =         0.00000000
  ---------------------------------------------------
  free energy    TOTEN  =       -92.06170853 eV

  energy without entropy =      -92.02737995  energy(sigma->0) =      -92.05026567


--------------------------------------------------------------------------------------------------------




--------------------------------------- Iteration      1(  15)  ---------------------------------------


    POTLOK:  cpu time    0.0171: real time    0.0173
    SETDIJ:  cpu time    0.0022: real time    0.0022
     EDDAV:  cpu time   13.1011: real time   13.1328
       DOS:  cpu time    0.0015: real time    0.0015
    CHARGE:  cpu time    0.3710: real time    0.3719
    MIXING:  cpu time    0.0013: real time    0.0013
    --------------------------------------------
      LOOP:  cpu time   13.4942: real time   13.5270

 eigenvalue-minimisations  : 12840
 total energy-change (2. order) : 0.7693745E-03  (-0.6069693E-02)
 number of electron     160.0000093 magnetization 
 augmentation part       50.0950357 magnetization 

 Broyden mixing:
  rms(total) = 0.32294E+00    rms(broyden)= 0.32294E+00
  rms(prec ) = 0.34845E+00
  weight for this iteration     100.00

 eigenvalues of (default mixing * dielectric matrix)
  average eigenvalue GAMMA=   0.6698
  1.9569  1.1339  1.1339  0.6789  0.4397  0.4397  0.2881  0.2881  0.1230  0.2156

 Free energy of the ion-electron system (eV)
  ---------------------------------------------------
  alpha Z        PSCENC =       303.52543553
  Ewald energy   TEWEN  =     98439.91766519
  -Hartree energ DENC   =   -110333.71957368
  -exchange      EXHF   =         0.00000000
  -V(xc)+E(xc)   XCENC  =        40.47069870
  PAW double counting   =     14312.05732283   -13897.48745864
  entropy T*S    EENTRO =        -0.03718069
  eigenvalues    EBANDS =      -650.48205799
  atomic energy  EATOM  =     11693.69420960
  Solvation  Ediel_sol  =         0.00000000
  ---------------------------------------------------
  free energy    TOTEN  =       -92.06093916 eV

  energy without entropy =      -92.02375846  energy(sigma->0) =      -92.04854559


--------------------------------------------------------------------------------------------------------




--------------------------------------- Iteration      1(  16)  ---------------------------------------


    POTLOK:  cpu time    0.0178: real time    0.0195
    SETDIJ:  cpu time    0.0022: real time    0.0022
     EDDAV:  cpu time   14.9645: real time   15.0027
       DOS:  cpu time    0.0016: real time    0.0016
    CHARGE:  cpu time    0.3710: real time    0.3718
    MIXING:  cpu time    0.0016: real time    0.0016
    --------------------------------------------
      LOOP:  cpu time   15.3586: real time   15.3993

 eigenvalue-minimisations  : 14616
 total energy-change (2. order) : 0.8092112E-02  (-0.7221851E-02)
 number of electron     160.0000093 magnetization 
 augmentation part       50.0942385 magnetization 

 Broyden mixing:
  rms(total) = 0.27431E+00    rms(broyden)= 0.27431E+00
  rms(prec ) = 0.31685E+00
  weight for this iteration     100.00

 eigenvalues of (default mixing * dielectric matrix)
  average eigenvalue GAMMA=   0.7568
  1.7641  1.7641  1.7544  0.7572  0.5418  0.5418  0.1230  0.2858  0.2858  0.2163
  0.2906

 Free energy of the ion-electron system (eV)
  ---------------------------------------------------
  alpha Z        PSCENC =       303.52543553
  Ewald energy   TEWEN  =     98439.91766519
  -Hartree energ DENC   =   -110335.15342209
  -exchange      EXHF   =         0.00000000
  -V(xc)+E(xc)   XCENC  =        40.50938037
  PAW double counting   =     14244.63593945   -13829.79979431
  entropy T*S    EENTRO =        -0.03663843
  eigenvalues    EBANDS =      -649.34562235
  atomic energy  EATOM  =     11693.69420960
  Solvation  Ediel_sol  =         0.00000000
  ---------------------------------------------------
  free energy    TOTEN  =       -92.05284704 eV

  energy without entropy =      -92.01620862  energy(sigma->0) =      -92.04063423


--------------------------------------------------------------------------------------------------------




--------------------------------------- Iteration      1(  17)  ---------------------------------------


    POTLOK:  cpu time    0.0192: real time    0.0249
    SETDIJ:  cpu time    0.0023: real time    0.0023
     EDDAV:  cpu time   12.6164: real time   12.6467
       DOS:  cpu time    0.0015: real time    0.0015
    CHARGE:  cpu time    0.3693: real time    0.3702
    MIXING:  cpu time    0.0013: real time    0.0013
    --------------------------------------------
      LOOP:  cpu time   13.0100: real time   13.0468

 eigenvalue-minimisations  : 12240
 total energy-change (2. order) : 0.3656003E-01  (-0.2783300E-01)
 number of electron     160.0000092 magnetization 
 augmentation part       50.0909480 magnetization 

 Broyden mixing:
  rms(total) = 0.90112E-01    rms(broyden)= 0.90091E-01
  rms(prec ) = 0.95564E-01
  weight for this iteration     100.00

 eigenvalues of (default mixing * dielectric matrix)
  average eigenvalue GAMMA=   0.7483
  1.7888  1.7888  1.7862  0.8315  0.5713  0.5713  0.4650  0.1230  0.2837  0.2837
  0.2161  0.2707

 Free energy of the ion-electron system (eV)
  ---------------------------------------------------
  alpha Z        PSCENC =       303.52543553
  Ewald energy   TEWEN  =     98439.91766519
  -Hartree energ DENC   =   -110338.06795722
  -exchange      EXHF   =         0.00000000
  -V(xc)+E(xc)   XCENC  =        40.55274929
  PAW double counting   =     14182.70054078   -13767.75605388
  entropy T*S    EENTRO =        -0.03925348
  eigenvalues    EBANDS =      -646.54362282
  atomic energy  EATOM  =     11693.69420960
  Solvation  Ediel_sol  =         0.00000000
  ---------------------------------------------------
  free energy    TOTEN  =       -92.01628701 eV

  energy without entropy =      -91.97703353  energy(sigma->0) =      -92.00320252


--------------------------------------------------------------------------------------------------------




--------------------------------------- Iteration      1(  18)  ---------------------------------------


    POTLOK:  cpu time    0.0174: real time    0.0202
    SETDIJ:  cpu time    0.0023: real time    0.0023
     EDDAV:  cpu time   12.8395: real time   12.8701
       DOS:  cpu time    0.0017: real time    0.0017
    CHARGE:  cpu time    0.3717: real time    0.3726
    MIXING:  cpu time    0.0014: real time    0.0014
    --------------------------------------------
      LOOP:  cpu time   13.2339: real time   13.2683

 eigenvalue-minimisations  : 12504
 total energy-change (2. order) :-0.1472959E-02  (-0.4225385E-02)
 number of electron     160.0000092 magnetization 
 augmentation part       50.0880023 magnetization 

 Broyden mixing:
  rms(total) = 0.99856E-01    rms(broyden)= 0.99852E-01
  rms(prec ) = 0.12442E+00
  weight for this iteration     100.00

 eigenvalues of (default mixing * dielectric matrix)
  average eigenvalue GAMMA=   0.7135
  1.9792  1.9792  1.4974  0.7374  0.5925  0.5925  0.4081  0.1230  0.2828  0.2828
  0.2166  0.2922  0.2922

 Free energy of the ion-electron system (eV)
  ---------------------------------------------------
  alpha Z        PSCENC =       303.52543553
  Ewald energy   TEWEN  =     98439.91766519
  -Hartree energ DENC   =   -110338.89089845
  -exchange      EXHF   =         0.00000000
  -V(xc)+E(xc)   XCENC  =        40.56529805
  PAW double counting   =     14184.34196424   -13769.41919102
  entropy T*S    EENTRO =        -0.03893963
  eigenvalues    EBANDS =      -645.71330348
  atomic energy  EATOM  =     11693.69420960
  Solvation  Ediel_sol  =         0.00000000
  ---------------------------------------------------
  free energy    TOTEN  =       -92.01775997 eV

[...]
     80      -0.8331      1.18778
     81      -0.7662      0.63314
     82      -0.7239      0.33642
     83      -0.6622      0.05210
     84      -0.4876     -0.04470
     85      -0.4727     -0.03798
     86      -0.3448     -0.00479
     87       1.1589     -0.00000
     88       1.1723     -0.00000
     89       1.2739     -0.00000
     90       1.7630     -0.00000
     91       1.7735     -0.00000
     92       1.7872     -0.00000
     93       2.8490     -0.00000
     94       2.8757     -0.00000
     95       3.2746     -0.00000
     96       4.3598     -0.00000

 k-point    51 :      -0.4375    0.4375    0.0000
  band No.  band energies     occupation 
      1      -8.3125      2.00000
      2      -8.2829      2.00000
      3      -7.3135      2.00000
      4      -7.2501      2.00000
      5      -6.8414      2.00000
      6      -6.5853      2.00000
      7      -6.5142      2.00000
      8      -6.4539      2.00000
      9      -6.3606      2.00000
     10      -6.2729      2.00000
     11      -6.2014      2.00000
     12      -6.1493      2.00000
     13      -6.1464      2.00000
     14      -5.9572      2.00000
     15      -5.8042      2.00000
     16      -5.7183      2.00000
     17      -5.7032      2.00000
     18      -5.6780      2.00000
     19      -5.5498      2.00000
     20      -5.4566      2.00000
     21      -5.3605      2.00000
     22      -5.2897      2.00000
     23      -5.2741      2.00000
     24      -5.2119      2.00000
     25      -5.1551      2.00000
     26      -5.0770      2.00000
     27      -5.0700      2.00000
     28      -5.0314      2.00000
     29      -4.7657      2.00000
     30      -4.7245      2.00000
     31      -4.6672      2.00000
     32      -4.6098      2.00000
     33      -4.5580      2.00000
     34      -4.4701      2.00000
     35      -4.4358      2.00000
     36      -4.3208      2.00000
     37      -4.2227      2.00000
     38      -4.1451      2.00000
     39      -4.1213      2.00000
     40      -4.0840      2.00000
     41      -4.0382      2.00000
     42      -3.9326      2.00000
     43      -3.8339      2.00000
     44      -3.7225      2.00000
     45      -3.7010      2.00000
     46      -3.6736      2.00000
     47      -3.6371      2.00000
     48      -3.6040      2.00000
     49      -3.5720      2.00000
     50      -3.4488      2.00000
     51      -3.3733      2.00000
     52      -3.3052      2.00000
     53      -3.1661      2.00000
     54      -2.9895      2.00000
     55      -2.9343      2.00000
     56      -2.8769      2.00000
     57      -2.8612      2.00000
     58      -2.8177      2.00000
     59      -2.6850      2.00000
     60      -2.5998      2.00000
     61      -2.5304      2.00000
     62      -2.4888      2.00000
     63      -2.3940      2.00000
     64      -2.3465      2.00000
     65      -2.2224      2.00000
     66      -2.1815      2.00000
     67      -2.1230      2.00000
     68      -2.0320      2.00000
     69      -1.9649      2.00000
     70      -1.9048      2.00000
     71      -1.8679      2.00000
     72      -1.7932      2.00000
     73      -1.6995      2.00000
     74      -1.5627      2.00000
     75      -1.4489      2.00006
     76      -1.3526      2.00086
     77      -1.2860      2.00395
     78      -1.0845      2.06569
     79      -0.9707      1.97991
     80      -0.8976      1.66417
     81      -0.8630      1.42579
     82      -0.7640      0.61649
     83      -0.6848      0.13426
     84      -0.5876     -0.06669
     85      -0.4239     -0.01968
     86      -0.4041     -0.01434
     87       0.2033     -0.00000
     88       0.5031     -0.00000
     89       1.4511     -0.00000
     90       1.5186     -0.00000
     91       1.6119     -0.00000
     92       2.3547     -0.00000
     93       3.1502     -0.00000
     94       3.4370     -0.00000
     95       3.9365     -0.00000
     96       3.9958     -0.00000

 k-point    52 :       0.1250   -0.4375    0.0000
  band No.  band energies     occupation 
      1      -8.3092      2.00000
      2      -8.2860      2.00000
      3      -7.3115      2.00000
      4      -7.2529      2.00000
      5      -6.8405      2.00000
      6      -6.5826      2.00000
      7      -6.5103      2.00000
      8      -6.4525      2.00000
      9      -6.3636      2.00000
     10      -6.2734      2.00000
     11      -6.2173      2.00000
     12      -6.1461      2.00000
     13      -6.1375      2.00000
     14      -5.9595      2.00000
     15      -5.8018      2.00000
     16      -5.7152      2.00000
     17      -5.7023      2.00000
     18      -5.6816      2.00000
     19      -5.5572      2.00000
     20      -5.4577      2.00000
     21      -5.3573      2.00000
     22      -5.2832      2.00000
     23      -5.2825      2.00000
     24      -5.2051      2.00000
     25      -5.1572      2.00000
     26      -5.0837      2.00000
     27      -5.0650      2.00000
     28      -5.0169      2.00000
     29      -4.7985      2.00000
     30      -4.7195      2.00000
     31      -4.6654      2.00000
     32      -4.6079      2.00000
     33      -4.5535      2.00000
     34      -4.4643      2.00000
     35      -4.4278      2.00000
     36      -4.3156      2.00000
     37      -4.2385      2.00000
     38      -4.1474      2.00000
     39      -4.1130      2.00000
     40      -4.0874      2.00000
     41      -4.0231      2.00000
     42      -3.9375      2.00000
     43      -3.8380      2.00000
     44      -3.7388      2.00000
     45      -3.6938      2.00000
     46      -3.6698      2.00000
     47      -3.6292      2.00000
     48      -3.5961      2.00000
     49      -3.5859      2.00000
     50      -3.4789      2.00000
     51      -3.3650      2.00000
     52      -3.2837      2.00000
     53      -3.1341      2.00000
     54      -2.9892      2.00000
     55      -2.9368      2.00000
     56      -2.9000      2.00000
     57      -2.8795      2.00000
     58      -2.8195      2.00000
     59      -2.6912      2.00000
     60      -2.5917      2.00000
     61      -2.5255      2.00000
     62      -2.4884      2.00000
     63      -2.4032      2.00000
     64      -2.3269      2.00000
     65      -2.2156      2.00000
     66      -2.1704      2.00000
     67      -2.1077      2.00000
     68      -2.0518      2.00000
     69      -1.9850      2.00000
     70      -1.9172      2.00000
     71      -1.8651      2.00000
     72      -1.7966      2.00000
     73      -1.7053      2.00000
     74      -1.5926      2.00000
     75      -1.4368      2.00009
     76      -1.2726      2.00520
     77      -1.2529      2.00763
     78      -1.1582      2.03392
     79      -0.9888      2.01942
     80      -0.8955      1.65067
     81      -0.8532      1.35068
     82      -0.7838      0.77447
     83      -0.6409     -0.00321
     84      -0.6081     -0.05286
     85      -0.4443     -0.02647
     86      -0.3817     -0.00972
     87       0.2038     -0.00000
     88       0.5028     -0.00000
     89       1.4454     -0.00000
     90       1.5527     -0.00000
     91       1.5825     -0.00000
     92       2.3502     -0.00000
     93       3.1666     -0.00000
     94       3.4234     -0.00000
     95       3.9445     -0.00000
     96       3.9898     -0.00000


--------------------------------------------------------------------------------------------------------


 soft charge-density along one line, spin component           1
         0         1         2         3         4         5         6         7         8         9
 total charge-density along one line
 
 pseudopotential strength for first ion, spin component:           1
 -8.080   0.000   0.000  -0.007   0.000  -8.226   0.000   0.000
  0.000  -8.002  -0.000   0.000  -0.005   0.000  -8.149  -0.000
  0.000  -0.000  -7.993   0.000   0.000   0.000  -0.000  -8.141
 -0.007   0.000   0.000  -8.002  -0.000  -0.006   0.000   0.000
  0.000  -0.005   0.000  -0.000  -8.080   0.000  -0.005   0.000
 -8.226   0.000   0.000  -0.006   0.000  -8.355   0.000   0.000
  0.000  -8.149  -0.000   0.000  -0.005   0.000  -8.281  -0.000
  0.000  -0.000  -8.141   0.000   0.000   0.000  -0.000  -8.272
 -0.006   0.000   0.000  -8.150  -0.000  -0.006   0.000   0.000
  0.000  -0.005   0.000  -0.000  -8.226   0.000  -0.005   0.000
  0.000   0.000  -0.025  -0.000   0.000   0.000   0.000  -0.025
  0.000   0.001  -0.036  -0.000   0.000   0.000   0.001  -0.036
 -0.000  -0.000  -0.000  -0.000   0.000  -0.000  -0.000  -0.000
 -0.000  -0.000  -0.002   0.000  -0.000  -0.000  -0.000  -0.002
  0.000  -0.000   0.000  -0.000  -0.000   0.000  -0.000   0.000
 -0.000   0.001  -0.000  -0.000   0.000  -0.000   0.002  -0.000
 -0.000   0.000  -0.001   0.000  -0.000  -0.000   0.000  -0.000
  0.001  -0.000   0.000   0.001  -0.000   0.001  -0.000   0.000
 total augmentation occupancy for first ion, spin component:           1
  4.824   0.000   0.000  -0.042   0.000  -2.998   0.000   0.000  -0.048   0.000   0.000   0.000   0.000   0.000  -0.050   0.000
  0.000   4.889   0.010   0.000  -0.006   0.000  -2.607  -0.007   0.000  -0.073  -0.003  -0.001  -0.228  -0.000   0.000   0.012
  0.000   0.010   5.510   0.000  -0.001   0.000  -0.007  -3.317   0.000   0.001   0.838  -0.068  -0.003  -0.386   0.000  -0.000
 -0.042   0.000   0.000   4.886   0.000  -0.046   0.000   0.000  -2.605   0.000   0.000   0.000   0.000   0.000  -0.229   0.000
  0.000  -0.006  -0.001   0.000   4.822   0.000  -0.075   0.001   0.000  -2.997  -0.002  -0.002  -0.050   0.001   0.000   0.002
 -2.998   0.000   0.000  -0.046   0.000   3.033   0.000   0.000   0.114   0.000   0.000   0.000   0.000   0.000   0.047   0.000
  0.000  -2.607  -0.007   0.000  -0.075   0.000   2.288   0.005   0.000   0.136   0.001   0.002   0.212   0.000   0.000  -0.010
  0.000  -0.007  -3.317   0.000   0.001   0.000   0.005   3.070   0.000  -0.000  -0.764   0.079   0.002   0.384   0.000  -0.000
 -0.048   0.000   0.000  -2.605   0.000   0.114   0.000   0.000   2.286   0.000   0.000   0.000   0.000   0.000   0.212   0.000
  0.000  -0.073   0.001   0.000  -2.997   0.000   0.136  -0.000   0.000   3.032   0.001   0.002   0.047  -0.000   0.000  -0.002
  0.000  -0.003   0.838   0.000  -0.002   0.000   0.001  -0.764   0.000   0.001   2.559  -0.585  -0.000   0.172   0.000   0.000
  0.000  -0.001  -0.068   0.000  -0.002   0.000   0.002   0.079   0.000   0.002  -0.585   0.174   0.000  -0.079   0.000  -0.000
  0.000  -0.228  -0.003   0.000  -0.050   0.000   0.212   0.002   0.000   0.047  -0.000   0.000   0.235   0.001   0.000  -0.007
  0.000  -0.000  -0.386   0.000   0.001   0.000   0.000   0.384   0.000  -0.000   0.172  -0.079   0.001   0.133   0.000  -0.000
 -0.050   0.000   0.000  -0.229   0.000   0.047   0.000   0.000   0.212   0.000   0.000   0.000   0.000   0.000   0.235   0.000
  0.000   0.012  -0.000   0.000   0.002   0.000  -0.010  -0.000   0.000  -0.002   0.000  -0.000  -0.007  -0.000   0.000   0.000
  0.000  -0.000   0.010   0.000  -0.000   0.000   0.000  -0.011   0.000   0.000  -0.009   0.003  -0.000  -0.004   0.000  -0.000
  0.002   0.000   0.000   0.012   0.000  -0.002   0.000   0.000  -0.010   0.000   0.000   0.000   0.000   0.000  -0.007   0.000


------------------------ aborting loop because EDIFF is reached ----------------------------------------



 DIPCOR: dipole corrections for dipol
 direction  3 min pos    11,
 dipolmoment           0.000000      0.000000      0.023036 electrons x Angstroem
 Tr[quadrupol]      -943.528266

 energy correction for charged system         0.000000 eV
 dipol+quadrupol energy correction            0.000058 eV
 added-field ion interaction          0.000000 eV  (added to PSCEN)

 
  *************** adding dipol energy to TOTEN NOW **************** 
    CHARGE:  cpu time    0.3688: real time    0.3698
    FORLOC:  cpu time    0.0032: real time    0.0032
    FORNL :  cpu time    4.2955: real time    4.3069
    STRESS:  cpu time   12.9210: real time   12.9557
    FORCOR:  cpu time    0.0203: real time    0.0211
    FORHAR:  cpu time    0.0068: real time    0.0068
    MIXING:  cpu time    0.0020: real time    0.0020
    OFIELD:  cpu time    0.0001: real time    0.0001

  FORCE on cell =-STRESS in cart. coord.  units (eV):
  Direction    XX          YY          ZZ          XY          YZ          ZX
  --------------------------------------------------------------------------------------
  Alpha Z   303.52544   303.52544   303.52544
  Ewald  107332.17958107332.19166************     0.00000    -0.00000     0.00000
  Hartree109641.14719109641.10845************    -0.00000     0.07831     0.00000
  E(xc)    -709.69513  -709.68545  -714.43109     0.00004    -0.01633    -0.00000
  Local  ************************222317.10445     0.00119    -0.35510    -0.00005
  n-local    59.19101    59.19687    42.13440     3.97435    -0.03335    -0.49941
  augment   834.52631   834.44285   862.16550    -0.00080     0.12280     0.00000
  Kinetic  2282.28427  2282.10523  2353.06712     2.77246     0.25474    -0.57123
  Fock        0.00000     0.00000     0.00000     0.00000     0.00000     0.00000
  -------------------------------------------------------------------------------------
  Total     -11.22475   -11.27552    -0.55359     0.00000     0.05107     0.00000
  in kB     -21.82191   -21.92061    -1.07622     0.00000     0.09928     0.00000
  external pressure =      -14.94 kB  Pullay stress =        0.00 kB


 VOLUME and BASIS-vectors are now :
 -----------------------------------------------------------------------------
  energy-cutoff  :      350.00
  volume of cell :      824.13
      direct lattice vectors                 reciprocal lattice vectors
     5.557859300  0.000000000  0.000000000     0.179925390 -0.103879972  0.000000000
     2.778929650  4.813247345  0.000000000     0.000000000  0.207759944  0.000000000
     0.000000000  0.000000000 30.806959674     0.000000000  0.000000000  0.032460198

  length of vectors
     5.557859300  5.557859300 30.806959674     0.207759944  0.207759944  0.032460198


 FORCES acting on ions
    electron-ion (+dipol)            ewald-force                    non-local-force                 convergence-correction
 -----------------------------------------------------------------------------------------------
   0.515E-06 -.231E-02 0.309E+04   -.957E-12 -.635E-12 -.309E+04   0.000E+00 -.166E-01 -.404E+00   -.112E-08 -.530E-03 -.465E-01
   0.621E-06 0.592E-01 0.281E+04   -.972E-12 -.564E-12 -.281E+04   0.000E+00 -.690E-01 -.106E+01   0.350E-08 -.335E-02 -.424E-01
   0.553E-01 -.216E-01 0.281E+04   -.960E-12 -.572E-12 -.281E+04   -.359E-01 0.325E-01 -.106E+01   -.245E-02 0.192E-02 -.417E-01
   -.553E-01 -.216E-01 0.281E+04   -.930E-12 -.600E-12 -.281E+04   0.359E-01 0.325E-01 -.106E+01   0.245E-02 0.192E-02 -.417E-01
   -.502E+01 -.260E+01 0.895E+03   0.513E+01 0.268E+01 -.894E+03   0.274E-01 -.517E-03 -.294E+00   0.364E-02 0.665E-04 -.236E+00
   0.502E+01 -.260E+01 0.895E+03   -.513E+01 0.268E+01 -.894E+03   -.274E-01 -.517E-03 -.294E+00   -.364E-02 0.665E-04 -.236E+00
   0.126E-05 0.551E+01 0.896E+03   0.267E-11 -.564E+01 -.895E+03   0.000E+00 -.227E-01 -.407E+00   -.157E-08 -.223E-02 -.232E+00
   0.107E-05 -.293E+00 0.900E+03   0.310E-11 0.279E+00 -.899E+03   0.867E-18 0.187E-01 -.231E+00   -.998E-09 0.207E-02 -.238E+00
   -.980E-06 -.302E+00 -.999E+03   -.271E-11 0.285E+00 0.998E+03   0.867E-18 0.112E-01 0.405E+00   -.403E-09 0.558E-02 -.398E+00
   -.888E-06 0.531E+01 -.100E+04   -.321E-11 -.553E+01 0.100E+04   -.173E-17 0.433E-01 0.260E+00   0.530E-08 0.217E-01 -.413E+00
   0.486E+01 -.251E+01 -.100E+04   -.504E+01 0.263E+01 0.100E+04   0.219E-01 -.274E-01 0.362E+00   0.140E-01 -.137E-01 -.419E+00
   -.486E+01 -.251E+01 -.100E+04   0.504E+01 0.263E+01 0.100E+04   -.219E-01 -.274E-01 0.362E+00   -.140E-01 -.137E-01 -.419E+00
   -.654E-06 0.360E-01 -.285E+04   0.931E-12 0.551E-12 0.285E+04   0.000E+00 -.512E-01 0.662E+00   -.722E-09 -.256E-02 -.194E+00
   -.591E-01 -.895E-02 -.285E+04   0.978E-12 0.521E-12 0.285E+04   0.517E-01 0.444E-01 0.686E+00   0.763E-03 0.213E-02 -.192E+00
   0.591E-01 -.895E-02 -.285E+04   0.936E-12 0.533E-12 0.285E+04   -.517E-01 0.444E-01 0.686E+00   -.763E-03 0.213E-02 -.192E+00
   0.431E-06 -.198E-01 -.256E+04   0.824E-12 0.482E-12 0.256E+04   0.867E-18 -.237E-01 0.119E+00   0.188E-08 -.152E-02 -.182E+00
 -----------------------------------------------------------------------------------------------
   0.101E-05 0.119E-01 0.480E+01   0.165E-13 0.257E-13 0.455E-12   -.607E-17 -.120E-01 -.128E+01   0.458E-08 0.451E-04 -.352E+01
 
 
 POSITION                                       TOTAL-FORCE (eV/Angst)
 -----------------------------------------------------------------------------------
      0.00000      0.00000     12.00000        -0.000000     -0.019487     -1.160521
      2.77893      0.00000     12.00000        -0.000000     -0.013169      0.058501
      1.38946      2.40662     12.00000         0.017023      0.012819      0.064153
      4.16839      2.40662     12.00000        -0.017023      0.012819      0.064153
      1.38946      0.80221     14.31554         0.138679      0.078840      0.195812
      4.16839      0.80221     14.31554        -0.138679      0.078840      0.195812
      2.77893      3.20883     14.31554        -0.000000     -0.159841      0.409618
      5.55786      3.20883     14.31554        -0.000000      0.006800     -0.070913
      5.55786      1.60442     16.61120        -0.000000     -0.000780     -0.029099
      2.77893      1.60442     16.61120        -0.000000     -0.164527      0.578027
      6.94732      4.01104     16.61120        -0.141733      0.077667      0.301732
      4.16839      4.01104     16.61120         0.141733      0.077667      0.301732
      0.00000      0.00000     18.94198        -0.000000     -0.017754      0.067847
      1.38946      2.40662     18.94198        -0.006605      0.037544      0.082486
      4.16839      2.40662     18.94198         0.006605      0.037544      0.082486
      2.77893      0.00000     18.94198        -0.000000     -0.044980     -1.141826
 -----------------------------------------------------------------------------------
    total drift:                                0.000001      0.000007      0.000625


--------------------------------------------------------------------------------------------------------



  FREE ENERGIE OF THE ION-ELECTRON SYSTEM (eV)
  ---------------------------------------------------
  free  energy   TOTEN  =       -92.00982054 eV

  energy  without entropy=      -91.96960819  energy(sigma->0) =      -91.99641642
 


--------------------------------------------------------------------------------------------------------


    POTLOK:  cpu time    0.0204: real time    0.0205


--------------------------------------------------------------------------------------------------------


     LOOP+:  cpu time  391.3021: real time  392.4209
    4ORBIT:  cpu time    0.0000: real time    0.0000

 total amount of memory used by VASP MPI-rank0   362189. kBytes
=======================================================================

   base      :      30000. kBytes
   nonl-proj :     280273. kBytes
   fftplans  :       2015. kBytes
   grid      :       7641. kBytes
   one-center:        248. kBytes
   wavefun   :      42012. kBytes
 
  
  
 General timing and accounting informations for this job:
 ========================================================
  
                  Total CPU time used (sec):      396.688
                            User time (sec):      395.391
                          System time (sec):        1.297
                         Elapsed time (sec):      398.301
  
                   Maximum memory used (kb):      425480.
                   Average memory used (kb):           0.
  
                          Minor page faults:        92320
                          Major page faults:           23
                 Voluntary context switches:          837
