       N       E                     dE             d eps       ncg     rms          rms(c)
DAV:   1     0.977479744794E+03    0.97748E+03   -0.55480E+04  9984   0.101E+03
DAV:   2    -0.385376415432E+02   -0.10160E+04   -0.98517E+03 14544   0.248E+02
DAV:   3    -0.969721987205E+02   -0.58435E+02   -0.56582E+02 12384   0.597E+01
DAV:   4    -0.982300878063E+02   -0.12579E+01   -0.12520E+01 14208   0.101E+01
DAV:   5    -0.982634320237E+02   -0.33344E-01   -0.33329E-01 15072   0.130E+00    0.417E+01
DAV:   6    -0.943459207833E+02    0.39175E+01   -0.29617E+01 11760   0.194E+01    0.303E+01
DAV:   7    -0.123804700155E+03   -0.29459E+02   -0.22932E+02 14856   0.601E+01    0.492E+01
DAV:   8    -0.101270858059E+03    0.22534E+02   -0.85719E+01 15384   0.380E+01    0.261E+01
DAV:   9    -0.103035773517E+03   -0.17649E+01   -0.92340E+01 13608   0.399E+01    0.281E+01
DAV:  10    -0.101231587081E+03    0.18042E+01   -0.80804E+01 16128   0.446E+01    0.250E+01
DAV:  11    -0.929773639322E+02    0.82542E+01   -0.28559E+01 13824   0.161E+01    0.988E+00
DAV:  12    -0.930810590879E+02   -0.10370E+00   -0.81446E+00 15000   0.109E+01    0.111E+01
DAV:  13    -0.921395846011E+02    0.94147E+00   -0.72845E+00 14328   0.708E+00    0.473E+00
DAV:  14    -0.920617136786E+02    0.77871E-01   -0.11464E+00 11928   0.392E+00    0.351E+00
DAV:  15    -0.920609377799E+02    0.77590E-03   -0.60577E-02 12864   0.893E-01    0.323E+00
DAV:  16    -0.920527973694E+02    0.81404E-02   -0.72060E-02 14664   0.894E-01    0.274E+00
DAV:  17    -0.920163081938E+02    0.36489E-01   -0.27853E-01 12264   0.162E+00    0.903E-01
DAV:  18    -0.920177668349E+02   -0.14586E-02   -0.42032E-02 12576   0.710E-01    0.999E-01
DAV:  19    -0.920151356327E+02    0.26312E-02   -0.40160E-03 11640   0.232E-01    0.819E-01
DAV:  20    -0.920126369478E+02    0.24987E-02   -0.56372E-03 13752   0.222E-01    0.546E-01
DAV:  21    -0.920113711110E+02    0.12658E-02   -0.42664E-03 12720   0.223E-01    0.372E-01
DAV:  22    -0.920113432243E+02    0.27887E-04   -0.22193E-03 12840   0.164E-01    0.399E-01
DAV:  23    -0.920103959663E+02    0.94726E-03   -0.16465E-03 15168   0.123E-01    0.226E-01
DAV:  24    -0.920100900958E+02    0.30587E-03   -0.50736E-04 15408   0.709E-02    0.144E-01
DAV:  25    -0.920098958387E+02    0.19426E-03   -0.49311E-04 13992   0.727E-02    0.831E-02
DAV:  26    -0.920098709093E+02    0.24929E-04   -0.25386E-04 10824   0.562E-02    0.528E-02
DAV:  27    -0.920098787383E+02   -0.78290E-05   -0.25146E-05  7512   0.182E-02
   1 F= -.92009820E+02 E0= -.91996416E+02  d E =-.402120E-01
