  17  17   0   0
  0.4847811E+02  0.5557859E-09  0.5557859E-09  0.3080696E-08  0.5000000E-15
  1.000000000000000E-004
  CAR 
 unknown system                          
      6.43942097    -12.12727126  301     -0.78804646      1.00000000
    -12.127  0.0000E+00  0.0000E+00
    -12.065  0.0000E+00  0.0000E+00
    -12.003  0.0000E+00  0.0000E+00
    -11.942  0.0000E+00  0.0000E+00
    -11.880  0.0000E+00  0.0000E+00
    -11.818  0.0000E+00  0.0000E+00
    -11.756 -0.3679E-28 -0.2277E-29
    -11.694 -0.4952E-26 -0.3087E-27
    -11.632 -0.5508E-24 -0.3440E-25
    -11.570 -0.5050E-22 -0.3160E-23
    -11.508 -0.3816E-20 -0.2393E-21
    -11.446 -0.2376E-18 -0.1494E-19
    -11.385 -0.1218E-16 -0.7690E-18
    -11.323 -0.5146E-15 -0.3262E-16
    -11.261 -0.1733E-13 -0.1105E-14
    -11.199 -0.4945E-12 -0.3171E-13
    -11.137 -0.1159E-10 -0.7492E-12
    -11.075 -0.2232E-09 -0.1457E-10
    -11.013 -0.3529E-08 -0.2330E-09
    -10.951 -0.4573E-07 -0.3063E-08
    -10.889 -0.4853E-06 -0.3310E-07
    -10.828 -0.4207E-05 -0.2935E-06
    -10.766 -0.2971E-04 -0.2132E-05
    -10.704 -0.1703E-03 -0.1267E-04
    -10.642 -0.7874E-03 -0.6140E-04
    -10.580 -0.2907E-02 -0.2413E-03
    -10.518 -0.8422E-02 -0.7625E-03
    -10.456 -0.1848E-01 -0.1906E-02
    -10.394 -0.2796E-01 -0.3636E-02
    -10.332 -0.1839E-01 -0.4774E-02
    -10.271  0.3976E-01 -0.2313E-02
    -10.209  0.1666E+00  0.7999E-02
    -10.147  0.3497E+00  0.2964E-01
    -10.085  0.5484E+00  0.6358E-01
    -10.023  0.7248E+00  0.1084E+00
     -9.961  0.8575E+00  0.1615E+00
     -9.899  0.9294E+00  0.2190E+00
     -9.837  0.9253E+00  0.2763E+00
     -9.775  0.8556E+00  0.3292E+00
     -9.714  0.7719E+00  0.3770E+00
     -9.652  0.7503E+00  0.4234E+00
     -9.590  0.8357E+00  0.4752E+00
     -9.528  0.9857E+00  0.5362E+00
     -9.466  0.1088E+01  0.6035E+00
     -9.404  0.1067E+01  0.6696E+00
     -9.342  0.9527E+00  0.7285E+00
     -9.280  0.8305E+00  0.7799E+00
     -9.218  0.7508E+00  0.8264E+00
     -9.157  0.7275E+00  0.8714E+00
     -9.095  0.7960E+00  0.9207E+00
     -9.033  0.1004E+01  0.9828E+00
     -8.971  0.1326E+01  0.1065E+01
     -8.909  0.1637E+01  0.1166E+01
     -8.847  0.1823E+01  0.1279E+01
     -8.785  0.1888E+01  0.1396E+01
     -8.723  0.1904E+01  0.1514E+01
     -8.661  0.1892E+01  0.1631E+01
     -8.600  0.1818E+01  0.1743E+01
     -8.538  0.1708E+01  0.1849E+01
     -8.476  0.1691E+01  0.1954E+01
     -8.414  0.1897E+01  0.2071E+01
     -8.352  0.2295E+01  0.2213E+01
     -8.290  0.2665E+01  0.2378E+01
     -8.228  0.2769E+01  0.2550E+01
     -8.166  0.2579E+01  0.2709E+01
     -8.104  0.2290E+01  0.2851E+01
     -8.043  0.2107E+01  0.2981E+01
     -7.981  0.2092E+01  0.3111E+01
     -7.919  0.2230E+01  0.3249E+01
     -7.857  0.2573E+01  0.3408E+01
     -7.795  0.3215E+01  0.3607E+01
     -7.733  0.4122E+01  0.3862E+01
     -7.671  0.5041E+01  0.4174E+01
     -7.609  0.5698E+01  0.4527E+01
     -7.547  0.6117E+01  0.4905E+01
     -7.486  0.6650E+01  0.5317E+01
     -7.424  0.7625E+01  0.5789E+01
     -7.362  0.9046E+01  0.6349E+01
     -7.300  0.1067E+02  0.7009E+01
     -7.238  0.1220E+02  0.7764E+01
     -7.176  0.1338E+02  0.8592E+01
     -7.114  0.1394E+02  0.9455E+01
     -7.052  0.1374E+02  0.1031E+02
     -6.990  0.1298E+02  0.1111E+02
     -6.929  0.1225E+02  0.1187E+02
     -6.867  0.1231E+02  0.1263E+02
     -6.805  0.1366E+02  0.1347E+02
     -6.743  0.1616E+02  0.1447E+02
     -6.681  0.1912E+02  0.1566E+02
     -6.619  0.2175E+02  0.1700E+02
     -6.557  0.2359E+02  0.1846E+02
     -6.495  0.2460E+02  0.1999E+02
     -6.433  0.2479E+02  0.2152E+02
     -6.372  0.2429E+02  0.2302E+02
     -6.310  0.2346E+02  0.2448E+02
     -6.248  0.2280E+02  0.2589E+02
     -6.186  0.2238E+02  0.2727E+02
     -6.124  0.2174E+02  0.2862E+02
     -6.062  0.2035E+02  0.2988E+02
     -6.000  0.1822E+02  0.3100E+02
     -5.938  0.1601E+02  0.3199E+02
     -5.876  0.1460E+02  0.3290E+02
     -5.815  0.1460E+02  0.3380E+02
     -5.753  0.1605E+02  0.3480E+02
     -5.691  0.1835E+02  0.3593E+02
     -5.629  0.2056E+02  0.3720E+02
     -5.567  0.2173E+02  0.3855E+02
     -5.505  0.2151E+02  0.3988E+02
     -5.443  0.2039E+02  0.4114E+02
     -5.381  0.1943E+02  0.4234E+02
     -5.319  0.1947E+02  0.4355E+02
     -5.258  0.2045E+02  0.4482E+02
     -5.196  0.2157E+02  0.4615E+02
     -5.134  0.2210E+02  0.4752E+02
     -5.072  0.2200E+02  0.4888E+02
     -5.010  0.2178E+02  0.5023E+02
     -4.948  0.2187E+02  0.5158E+02
     -4.886  0.2224E+02  0.5296E+02
     -4.824  0.2254E+02  0.5435E+02
     -4.762  0.2268E+02  0.5576E+02
     -4.701  0.2312E+02  0.5719E+02
     -4.639  0.2443E+02  0.5870E+02
     -4.577  0.2666E+02  0.6035E+02
     -4.515  0.2899E+02  0.6214E+02
     -4.453  0.3019E+02  0.6401E+02
     -4.391  0.2949E+02  0.6584E+02
     -4.329  0.2754E+02  0.6754E+02
     -4.267  0.2599E+02  0.6915E+02
     -4.205  0.2621E+02  0.7077E+02
     -4.144  0.2815E+02  0.7251E+02
     -4.082  0.3063E+02  0.7441E+02
     -4.020  0.3241E+02  0.7642E+02
     -3.958  0.3307E+02  0.7846E+02
     -3.896  0.3302E+02  0.8051E+02
     -3.834  0.3290E+02  0.8254E+02
     -3.772  0.3310E+02  0.8459E+02
     -3.710  0.3352E+02  0.8667E+02
     -3.648  0.3378E+02  0.8876E+02
     -3.587  0.3335E+02  0.9082E+02
     -3.525  0.3174E+02  0.9278E+02
     -3.463  0.2886E+02  0.9457E+02
     -3.401  0.2526E+02  0.9613E+02
     -3.339  0.2193E+02  0.9749E+02
     -3.277  0.1969E+02  0.9871E+02
     -3.215  0.1876E+02  0.9987E+02
     -3.153  0.1890E+02  0.1010E+03
     -3.091  0.1991E+02  0.1023E+03
     -3.030  0.2172E+02  0.1036E+03
     -2.968  0.2399E+02  0.1051E+03
     -2.906  0.2594E+02  0.1067E+03
     -2.844  0.2680E+02  0.1084E+03
     -2.782  0.2639E+02  0.1100E+03
     -2.720  0.2509E+02  0.1116E+03
     -2.658  0.2342E+02  0.1130E+03
     -2.596  0.2191E+02  0.1144E+03
     -2.534  0.2117E+02  0.1157E+03
     -2.473  0.2162E+02  0.1170E+03
     -2.411  0.2304E+02  0.1184E+03
     -2.349  0.2460E+02  0.1200E+03
     -2.287  0.2549E+02  0.1215E+03
     -2.225  0.2555E+02  0.1231E+03
     -2.163  0.2537E+02  0.1247E+03
     -2.101  0.2559E+02  0.1263E+03
     -2.039  0.2631E+02  0.1279E+03
     -1.977  0.2714E+02  0.1296E+03
     -1.916  0.2761E+02  0.1313E+03
     -1.854  0.2747E+02  0.1330E+03
     -1.792  0.2667E+02  0.1346E+03
     -1.730  0.2536E+02  0.1362E+03
     -1.668  0.2389E+02  0.1377E+03
     -1.606  0.2261E+02  0.1391E+03
     -1.544  0.2167E+02  0.1404E+03
     -1.482  0.2101E+02  0.1417E+03
     -1.420  0.2060E+02  0.1430E+03
     -1.359  0.2075E+02  0.1443E+03
     -1.297  0.2200E+02  0.1456E+03
     -1.235  0.2462E+02  0.1472E+03
     -1.173  0.2806E+02  0.1489E+03
     -1.111  0.3105E+02  0.1508E+03
     -1.049  0.3250E+02  0.1528E+03
     -0.987  0.3240E+02  0.1548E+03
     -0.925  0.3168E+02  0.1568E+03
     -0.863  0.3107E+02  0.1587E+03
     -0.802  0.3035E+02  0.1606E+03
     -0.740  0.2882E+02  0.1624E+03
     -0.678  0.2630E+02  0.1640E+03
     -0.616  0.2341E+02  0.1655E+03
     -0.554  0.2078E+02  0.1667E+03
     -0.492  0.1828E+02  0.1679E+03
     -0.430  0.1543E+02  0.1688E+03
     -0.368  0.1232E+02  0.1696E+03
     -0.306  0.9699E+01  0.1702E+03
     -0.245  0.8210E+01  0.1707E+03
     -0.183  0.7789E+01  0.1712E+03
     -0.121  0.7759E+01  0.1717E+03
     -0.059  0.7417E+01  0.1721E+03
      0.003  0.6545E+01  0.1725E+03
      0.065  0.5464E+01  0.1729E+03
      0.127  0.4639E+01  0.1732E+03
      0.189  0.4264E+01  0.1734E+03
      0.251  0.4200E+01  0.1737E+03
      0.312  0.4202E+01  0.1739E+03
      0.374  0.4173E+01  0.1742E+03
      0.436  0.4237E+01  0.1745E+03
      0.498  0.4596E+01  0.1747E+03
      0.560  0.5271E+01  0.1751E+03
      0.622  0.5983E+01  0.1754E+03
      0.684  0.6377E+01  0.1758E+03
      0.746  0.6344E+01  0.1762E+03
      0.808  0.6083E+01  0.1766E+03
      0.869  0.5843E+01  0.1770E+03
      0.931  0.5716E+01  0.1773E+03
      0.993  0.5681E+01  0.1777E+03
      1.055  0.5679E+01  0.1780E+03
      1.117  0.5565E+01  0.1784E+03
      1.179  0.5133E+01  0.1787E+03
      1.241  0.4337E+01  0.1790E+03
      1.303  0.3453E+01  0.1792E+03
      1.365  0.2964E+01  0.1793E+03
      1.426  0.3227E+01  0.1795E+03
      1.488  0.4187E+01  0.1798E+03
      1.550  0.5383E+01  0.1801E+03
      1.612  0.6293E+01  0.1805E+03
      1.674  0.6705E+01  0.1809E+03
      1.736  0.6754E+01  0.1814E+03
      1.798  0.6608E+01  0.1818E+03
      1.860  0.6241E+01  0.1822E+03
      1.922  0.5578E+01  0.1825E+03
      1.983  0.4733E+01  0.1828E+03
      2.045  0.3977E+01  0.1830E+03
      2.107  0.3501E+01  0.1833E+03
      2.169  0.3342E+01  0.1835E+03
      2.231  0.3468E+01  0.1837E+03
      2.293  0.3859E+01  0.1839E+03
      2.355  0.4463E+01  0.1842E+03
      2.417  0.5144E+01  0.1845E+03
      2.479  0.5728E+01  0.1849E+03
      2.540  0.6068E+01  0.1852E+03
      2.602  0.6064E+01  0.1856E+03
      2.664  0.5704E+01  0.1860E+03
      2.726  0.5187E+01  0.1863E+03
      2.788  0.4865E+01  0.1866E+03
      2.850  0.4892E+01  0.1869E+03
      2.912  0.5005E+01  0.1872E+03
      2.974  0.4829E+01  0.1875E+03
      3.036  0.4345E+01  0.1878E+03
      3.097  0.3863E+01  0.1880E+03
      3.159  0.3629E+01  0.1882E+03
      3.221  0.3606E+01  0.1885E+03
      3.283  0.3641E+01  0.1887E+03
      3.345  0.3678E+01  0.1889E+03
      3.407  0.3765E+01  0.1891E+03
      3.469  0.3932E+01  0.1894E+03
      3.531  0.4093E+01  0.1896E+03
      3.593  0.4089E+01  0.1899E+03
      3.654  0.3854E+01  0.1901E+03
      3.716  0.3525E+01  0.1904E+03
      3.778  0.3318E+01  0.1906E+03
      3.840  0.3289E+01  0.1908E+03
      3.902  0.3274E+01  0.1910E+03
      3.964  0.3096E+01  0.1912E+03
      4.026  0.2747E+01  0.1913E+03
      4.088  0.2353E+01  0.1915E+03
      4.150  0.2025E+01  0.1916E+03
      4.211  0.1780E+01  0.1917E+03
      4.273  0.1554E+01  0.1918E+03
      4.335  0.1278E+01  0.1919E+03
      4.397  0.9407E+00  0.1919E+03
      4.459  0.5943E+00  0.1920E+03
      4.521  0.3043E+00  0.1920E+03
      4.583  0.1070E+00  0.1920E+03
      4.645  0.2900E-02  0.1920E+03
      4.707 -0.3207E-01  0.1920E+03
      4.768 -0.3027E-01  0.1920E+03
      4.830 -0.1786E-01  0.1920E+03
      4.892 -0.7813E-02  0.1920E+03
      4.954 -0.2663E-02  0.1920E+03
      5.016 -0.7214E-03  0.1920E+03
      5.078 -0.1570E-03  0.1920E+03
      5.140 -0.2764E-04  0.1920E+03
      5.202 -0.3950E-05  0.1920E+03
      5.264 -0.4598E-06  0.1920E+03
      5.325 -0.4370E-07  0.1920E+03
      5.387 -0.3397E-08  0.1920E+03
      5.449 -0.2163E-09  0.1920E+03
      5.511 -0.1129E-10  0.1920E+03
      5.573 -0.4841E-12  0.1920E+03
      5.635 -0.1704E-13  0.1920E+03
      5.697 -0.4485E-15  0.1920E+03
      5.759  0.0000E+00  0.1920E+03
      5.821  0.0000E+00  0.1920E+03
      5.882  0.0000E+00  0.1920E+03
      5.944  0.0000E+00  0.1920E+03
      6.006  0.0000E+00  0.1920E+03
      6.068  0.0000E+00  0.1920E+03
      6.130  0.0000E+00  0.1920E+03
      6.192  0.0000E+00  0.1920E+03
      6.254  0.0000E+00  0.1920E+03
      6.316  0.0000E+00  0.1920E+03
      6.378  0.0000E+00  0.1920E+03
      6.439  0.0000E+00  0.1920E+03
