   17   17    1    1
  0.4847811E+02  0.5557859E-09  0.5557859E-09  0.3080696E-08  0.5000000E-15
  1.000000000000000E-004
  CAR 
 unknown system                          
    161     20     96
 
  0.6250000E-01  0.6250000E-01  0.0000000E+00  0.3125000E-01
    1      -10.127271   1.000000
    2       -8.890409   1.000000
    3       -7.824972   1.000000
    4       -7.681347   1.000000
    5       -7.397708   1.000000
    6       -7.374464   1.000000
    7       -7.371938   1.000000
    8       -7.246193   1.000000
    9       -7.224603   1.000000
   10       -7.217713   1.000000
   11       -6.797601   1.000000
   12       -6.780128   1.000000
   13       -6.772165   1.000000
   14       -6.731943   1.000000
   15       -6.724212   1.000000
   16       -6.572385   1.000000
   17       -6.500139   1.000000
   18       -6.456653   1.000000
   19       -6.450466   1.000000
   20       -5.739790   1.000000
   21       -5.734487   1.000000
   22       -5.721717   1.000000
   23       -5.238896   1.000000
   24       -4.869450   1.000000
   25       -4.864524   1.000000
   26       -4.790896   1.000000
   27       -4.644557   1.000000
   28       -4.632357   1.000000
   29       -4.604072   1.000000
   30       -4.553050   1.000000
   31       -4.394002   1.000000
   32       -4.315088   1.000000
   33       -4.269118   1.000000
   34       -4.160205   1.000000
   35       -4.146508   1.000000
   36       -4.006612   1.000000
   37       -3.972064   1.000000
   38       -3.931702   1.000000
   39       -3.896511   1.000000
   40       -3.875420   1.000000
   41       -3.676210   1.000000
   42       -3.628156   1.000000
   43       -3.482900   1.000000
   44       -3.466611   1.000000
   45       -3.425096   1.000000
   46       -3.419937   1.000000
   47       -3.113279   1.000000
   48       -3.098032   1.000000
   49       -2.894413   1.000000
   50       -2.762539   1.000000
   51       -2.698452   1.000000
   52       -2.353732   1.000000
   53       -2.294601   1.000000
   54       -2.292368   1.000000
   55       -2.024139   1.000000
   56       -2.020177   1.000000
   57       -1.836225   1.000000
   58       -1.822518   1.000000
   59       -1.700052   1.000000
   60       -1.653584   1.000000
   61       -1.580653   1.000000
   62       -1.579462   1.000000
   63       -1.382838   1.000108
   64       -1.179398   1.009170
   65       -1.135463   1.016962
   66       -1.100026   1.024922
   67       -1.077838   1.029855
   68       -0.976364   1.017955
   69       -0.963828   1.007572
   70       -0.916443   0.937964
   71       -0.872361   0.824037
   72       -0.825913   0.657086
   73       -0.778930   0.461470
   74       -0.738715   0.298135
   75       -0.682204   0.114281
   76       -0.656187   0.055148
   77       -0.619602  -0.000075
   78       -0.509011  -0.031947
   79       -0.503544  -0.030920
   80       -0.459780  -0.021167
   81       -0.329330  -0.002770
   82       -0.235315  -0.000329
   83       -0.169489  -0.000055
   84       -0.061774  -0.000002
   85        0.013038  -0.000000
   86        0.108384  -0.000000
   87        0.370903  -0.000000
   88        0.404604  -0.000000
   89        1.191759  -0.000000
   90        1.424903  -0.000000
   91        1.629631  -0.000000
   92        1.640671  -0.000000
   93        1.703143  -0.000000
   94        1.786673  -0.000000
   95        2.460614  -0.000000
   96        2.591348  -0.000000
 
  0.1875000E+00  0.6250000E-01  0.0000000E+00  0.6250000E-01
    1       -9.923509   1.000000
    2       -8.690131   1.000000
    3       -7.620808   1.000000
    4       -7.487580   1.000000
    5       -7.379566   1.000000
    6       -7.302066   1.000000
    7       -7.185850   1.000000
    8       -7.161987   1.000000
    9       -7.110589   1.000000
   10       -7.043131   1.000000
   11       -6.700436   1.000000
   12       -6.691542   1.000000
   13       -6.657458   1.000000
   14       -6.649747   1.000000
   15       -6.600511   1.000000
   16       -6.436763   1.000000
   17       -6.400533   1.000000
   18       -6.325676   1.000000
   19       -6.262803   1.000000
   20       -5.697810   1.000000
   21       -5.677063   1.000000
   22       -5.651954   1.000000
   23       -5.223256   1.000000
   24       -4.902176   1.000000
   25       -4.860243   1.000000
   26       -4.822257   1.000000
   27       -4.662472   1.000000
   28       -4.591218   1.000000
   29       -4.564773   1.000000
   30       -4.524858   1.000000
   31       -4.461564   1.000000
   32       -4.433772   1.000000
   33       -4.164786   1.000000
   34       -4.120906   1.000000
   35       -4.083783   1.000000
   36       -4.056624   1.000000
   37       -3.981445   1.000000
   38       -3.920701   1.000000
   39       -3.847237   1.000000
   40       -3.837941   1.000000
   41       -3.802662   1.000000
   42       -3.660197   1.000000
   43       -3.624645   1.000000
   44       -3.572787   1.000000
   45       -3.545360   1.000000
   46       -3.479478   1.000000
   47       -3.315822   1.000000
   48       -3.224691   1.000000
   49       -2.958964   1.000000
   50       -2.874047   1.000000
   51       -2.663967   1.000000
   52       -2.612315   1.000000
   53       -2.407277   1.000000
   54       -2.356007   1.000000
   55       -2.257927   1.000000
   56       -2.105990   1.000000
   57       -2.018498   1.000000
   58       -1.919998   1.000000
   59       -1.850351   1.000000
   60       -1.822896   1.000000
   61       -1.792959   1.000000
   62       -1.758598   1.000000
   63       -1.661105   1.000000
   64       -1.598281   1.000000
   65       -1.560701   1.000000
   66       -1.438271   1.000021
   67       -1.317549   1.000584
   68       -1.203128   1.006219
   69       -1.123339   1.019584
   70       -1.097339   1.025541
   71       -1.067675   1.031840
   72       -1.015571   1.034145
   73       -0.991861   1.026995
   74       -0.952635   0.995687
   75       -0.907515   0.918819
   76       -0.812926   0.604376
   77       -0.803021   0.563168
   78       -0.758254   0.375476
   79       -0.702580   0.172382
   80       -0.670645   0.085901
   81       -0.535286  -0.035235
   82       -0.461064  -0.021460
   83       -0.429128  -0.014640
   84       -0.361424  -0.005080
   85       -0.166509  -0.000051
   86        0.188983  -0.000000
   87        0.274251  -0.000000
   88        0.593121  -0.000000
   89        0.835563  -0.000000
   90        1.035588  -0.000000
   91        1.288507  -0.000000
   92        1.580203  -0.000000
   93        2.157974  -0.000000
   94        2.496949  -0.000000
   95        2.816520  -0.000000
   96        3.096024  -0.000000
 
  0.3125000E+00  0.6250000E-01  0.0000000E+00  0.6250000E-01
    1       -9.470321   1.000000
    2       -8.257122   1.000000
    3       -7.478040   1.000000
    4       -7.192872   1.000000
    5       -7.080202   1.000000
    6       -7.062330   1.000000
    7       -7.033924   1.000000
    8       -6.846269   1.000000
    9       -6.810518   1.000000
   10       -6.732043   1.000000
   11       -6.626764   1.000000
   12       -6.476334   1.000000
   13       -6.432701   1.000000
   14       -6.393565   1.000000
   15       -6.292898   1.000000
   16       -6.240273   1.000000
   17       -6.100737   1.000000
   18       -5.989768   1.000000
   19       -5.904362   1.000000
   20       -5.590140   1.000000
   21       -5.543730   1.000000
   22       -5.512438   1.000000
   23       -5.214019   1.000000
   24       -5.033495   1.000000
   25       -4.964141   1.000000
   26       -4.860688   1.000000
   27       -4.801641   1.000000
   28       -4.711662   1.000000
   29       -4.666971   1.000000
   30       -4.458590   1.000000
   31       -4.440621   1.000000
   32       -4.367300   1.000000
   33       -4.238863   1.000000
   34       -4.223267   1.000000
   35       -4.194745   1.000000
   36       -4.060296   1.000000
   37       -4.009296   1.000000
   38       -3.983705   1.000000
   39       -3.875327   1.000000
   40       -3.863736   1.000000
   41       -3.812177   1.000000
   42       -3.759766   1.000000
   43       -3.736580   1.000000
   44       -3.693896   1.000000
   45       -3.628058   1.000000
   46       -3.542101   1.000000
   47       -3.491960   1.000000
   48       -3.232189   1.000000
   49       -3.180867   1.000000
   50       -3.015098   1.000000
   51       -2.958993   1.000000
   52       -2.858673   1.000000
   53       -2.767397   1.000000
   54       -2.677543   1.000000
   55       -2.656733   1.000000
   56       -2.557346   1.000000
   57       -2.536511   1.000000
   58       -2.486398   1.000000
   59       -2.402974   1.000000
   60       -2.355397   1.000000
   61       -2.244184   1.000000
   62       -2.125630   1.000000
   63       -2.074314   1.000000
   64       -1.971636   1.000000
   65       -1.912672   1.000000
   66       -1.836312   1.000000
   67       -1.742679   1.000000
   68       -1.684998   1.000000
   69       -1.558410   1.000000
   70       -1.523641   1.000001
   71       -1.463748   1.000010
   72       -1.412448   1.000046
   73       -1.342976   1.000311
   74       -1.228956   1.003908
   75       -1.197785   1.006809
   76       -1.082116   1.028951
   77       -1.074206   1.030593
   78       -0.958648   1.002394
   79       -0.915296   0.935617
   80       -0.860351   0.784909
   81       -0.794467   0.527152
   82       -0.727821   0.257522
   83       -0.600651  -0.017290
   84       -0.562828  -0.033749
   85       -0.483152  -0.026548
   86       -0.005241  -0.000000
   87        0.333772  -0.000000
   88        0.571625  -0.000000
   89        0.954701  -0.000000
   90        1.486043  -0.000000
   91        1.742300  -0.000000
   92        1.909339  -0.000000
   93        2.318290  -0.000000
   94        2.465269  -0.000000
   95        3.196391  -0.000000
   96        3.604603  -0.000000
 
  0.4375000E+00  0.6250000E-01  0.0000000E+00  0.6250000E-01
    1       -8.831679   1.000000
    2       -7.844656   1.000000
    3       -7.698657   1.000000
    4       -7.107069   1.000000
    5       -6.748982   1.000000
    6       -6.701718   1.000000
    7       -6.574777   1.000000
    8       -6.516843   1.000000
    9       -6.501047   1.000000
   10       -6.462628   1.000000
   11       -6.416900   1.000000
   12       -6.217146   1.000000
   13       -6.123925   1.000000
   14       -6.033511   1.000000
   15       -6.003228   1.000000
   16       -5.943213   1.000000
   17       -5.808298   1.000000
   18       -5.639168   1.000000
   19       -5.557832   1.000000
   20       -5.460799   1.000000
   21       -5.351183   1.000000
   22       -5.311338   1.000000
   23       -5.266814   1.000000
   24       -5.126922   1.000000
   25       -5.078400   1.000000
   26       -4.999739   1.000000
   27       -4.948630   1.000000
   28       -4.889670   1.000000
   29       -4.685856   1.000000
   30       -4.660905   1.000000
   31       -4.609855   1.000000
   32       -4.536503   1.000000
   33       -4.459605   1.000000
   34       -4.400335   1.000000
   35       -4.368194   1.000000
   36       -4.259678   1.000000
   37       -4.127715   1.000000
   38       -4.064931   1.000000
   39       -4.032236   1.000000
   40       -3.948960   1.000000
   41       -3.840325   1.000000
   42       -3.763830   1.000000
   43       -3.726821   1.000000
   44       -3.680013   1.000000
   45       -3.598951   1.000000
   46       -3.577330   1.000000
   47       -3.517309   1.000000
   48       -3.478776   1.000000
   49       -3.452998   1.000000
   50       -3.320309   1.000000
   51       -3.272607   1.000000
   52       -3.229688   1.000000
   53       -3.208012   1.000000
   54       -3.081348   1.000000
   55       -2.982528   1.000000
   56       -2.931573   1.000000
   57       -2.897338   1.000000
   58       -2.831405   1.000000
   59       -2.718486   1.000000
   60       -2.667031   1.000000
   61       -2.495336   1.000000
   62       -2.407945   1.000000
   63       -2.342833   1.000000
   64       -2.304111   1.000000
   65       -2.228636   1.000000
   66       -2.192443   1.000000
   67       -2.080126   1.000000
   68       -2.048437   1.000000
   69       -1.948697   1.000000
   70       -1.926489   1.000000
   71       -1.842947   1.000000
   72       -1.802330   1.000000
   73       -1.634732   1.000000
   74       -1.507759   1.000002
   75       -1.442583   1.000019
   76       -1.261300   1.002061
   77       -1.195480   1.007077
   78       -1.113994   1.021696
   79       -1.092404   1.026670
   80       -0.865769   0.802956
   81       -0.811229   0.597365
   82       -0.742242   0.311706
   83       -0.724373   0.245116
   84       -0.558335  -0.034468
   85       -0.497550  -0.029708
   86       -0.326551  -0.002620
   87        0.686489  -0.000000
   88        0.753352  -0.000000
   89        1.083058  -0.000000
   90        1.623513  -0.000000
   91        1.836563  -0.000000
   92        2.042087  -0.000000
   93        2.475929  -0.000000
   94        2.716360  -0.000000
   95        3.497760  -0.000000
   96        3.741455  -0.000000
 
 -0.4375000E+00  0.6250000E-01  0.0000000E+00  0.6250000E-01
    1       -8.481580   1.000000
    2       -8.139314   1.000000
    3       -7.445125   1.000000
    4       -7.226677   1.000000
    5       -6.643815   1.000000
    6       -6.592741   1.000000
    7       -6.500010   1.000000
    8       -6.422791   1.000000
    9       -6.375123   1.000000
   10       -6.327854   1.000000
   11       -6.286321   1.000000
   12       -6.168931   1.000000
   13       -6.099199   1.000000
   14       -5.980833   1.000000
   15       -5.838103   1.000000
   16       -5.753640   1.000000
   17       -5.663384   1.000000
   18       -5.607438   1.000000
   19       -5.527812   1.000000
   20       -5.492242   1.000000
   21       -5.317418   1.000000
   22       -5.283636   1.000000
   23       -5.202497   1.000000
   24       -5.131776   1.000000
   25       -5.076312   1.000000
   26       -5.060010   1.000000
   27       -4.997991   1.000000
   28       -4.936140   1.000000
   29       -4.756877   1.000000
   30       -4.730822   1.000000
   31       -4.620027   1.000000
   32       -4.582823   1.000000
   33       -4.533172   1.000000
   34       -4.471297   1.000000
   35       -4.410364   1.000000
   36       -4.331286   1.000000
   37       -4.180628   1.000000
   38       -4.057840   1.000000
   39       -4.033468   1.000000
   40       -3.974755   1.000000
   41       -3.923541   1.000000
   42       -3.855380   1.000000
   43       -3.811103   1.000000
   44       -3.722575   1.000000
   45       -3.677957   1.000000
   46       -3.639592   1.000000
   47       -3.610672   1.000000
   48       -3.577045   1.000000
   49       -3.508149   1.000000
   50       -3.465635   1.000000
   51       -3.407716   1.000000
   52       -3.334888   1.000000
   53       -3.197663   1.000000
   54       -3.055768   1.000000
   55       -3.009626   1.000000
   56       -2.955691   1.000000
   57       -2.877616   1.000000
   58       -2.784199   1.000000
   59       -2.767324   1.000000
   60       -2.639879   1.000000
   61       -2.595182   1.000000
   62       -2.544433   1.000000
   63       -2.398042   1.000000
   64       -2.338169   1.000000
   65       -2.270416   1.000000
   66       -2.232831   1.000000
   67       -2.188715   1.000000
   68       -2.117950   1.000000
   69       -2.101060   1.000000
   70       -2.029011   1.000000
   71       -1.940535   1.000000
   72       -1.846787   1.000000
   73       -1.778224   1.000000
   74       -1.639434   1.000000
   75       -1.504561   1.000002
   76       -1.365041   1.000175
   77       -1.208190   1.005697
   78       -1.120040   1.020323
   79       -1.092141   1.026730
   80       -0.857533   0.775272
   81       -0.782945   0.478421
   82       -0.734718   0.282997
   83       -0.679424   0.107149
   84       -0.551182  -0.035192
   85       -0.499497  -0.030111
   86       -0.456219  -0.020360
   87        0.733238  -0.000000
   88        0.909109  -0.000000
   89        1.111070  -0.000000
   90        1.506865  -0.000000
   91        1.848236  -0.000000
   92        2.041512  -0.000000
   93        2.503478  -0.000000
   94        2.943573  -0.000000
   95        3.634847  -0.000000
   96        3.823041  -0.000000
 
 -0.3125000E+00  0.6250000E-01  0.0000000E+00  0.6250000E-01
    1       -9.167908   1.000000
    2       -7.983129   1.000000
    3       -7.618380   1.000000
    4       -7.061000   1.000000
    5       -6.943438   1.000000
    6       -6.868935   1.000000
    7       -6.811559   1.000000
    8       -6.657295   1.000000
    9       -6.638434   1.000000
   10       -6.584272   1.000000
   11       -6.565786   1.000000
   12       -6.338763   1.000000
   13       -6.269096   1.000000
   14       -6.203700   1.000000
   15       -6.143499   1.000000
   16       -6.102545   1.000000
   17       -5.936834   1.000000
   18       -5.798578   1.000000
   19       -5.717241   1.000000
   20       -5.503192   1.000000
   21       -5.441472   1.000000
   22       -5.410753   1.000000
   23       -5.241939   1.000000
   24       -5.109134   1.000000
   25       -5.040297   1.000000
   26       -4.944202   1.000000
   27       -4.871150   1.000000
   28       -4.796500   1.000000
   29       -4.690231   1.000000
   30       -4.533541   1.000000
   31       -4.464379   1.000000
   32       -4.434146   1.000000
   33       -4.336642   1.000000
   34       -4.305775   1.000000
   35       -4.236960   1.000000
   36       -4.172372   1.000000
   37       -4.086199   1.000000
   38       -4.063492   1.000000
   39       -4.034833   1.000000
   40       -3.929319   1.000000
   41       -3.786840   1.000000
   42       -3.736807   1.000000
   43       -3.701898   1.000000
   44       -3.650049   1.000000
   45       -3.570743   1.000000
   46       -3.543623   1.000000
   47       -3.476241   1.000000
   48       -3.368878   1.000000
   49       -3.240174   1.000000
   50       -3.187306   1.000000
   51       -3.099084   1.000000
   52       -3.065716   1.000000
   53       -2.966257   1.000000
   54       -2.917686   1.000000
   55       -2.900683   1.000000
   56       -2.847507   1.000000
   57       -2.776092   1.000000
   58       -2.733328   1.000000
   59       -2.659077   1.000000
   60       -2.537857   1.000000
   61       -2.462300   1.000000
   62       -2.256939   1.000000
   63       -2.217804   1.000000
   64       -2.139161   1.000000
   65       -2.098855   1.000000
   66       -2.039304   1.000000
   67       -1.944223   1.000000
   68       -1.876526   1.000000
   69       -1.802255   1.000000
   70       -1.776793   1.000000
   71       -1.692380   1.000000
   72       -1.550771   1.000000
   73       -1.495183   1.000003
   74       -1.405289   1.000057
   75       -1.290872   1.001087
   76       -1.180639   1.008994
   77       -1.104132   1.023972
   78       -1.095163   1.026041
   79       -1.023465   1.035085
   80       -0.885271   0.862380
   81       -0.825753   0.656450
   82       -0.753815   0.357479
   83       -0.714998   0.212578
   84       -0.566748  -0.032941
   85       -0.495492  -0.029275
   86       -0.150348  -0.000031
   87        0.490029  -0.000000
   88        0.662235  -0.000000
   89        1.029013  -0.000000
   90        1.659901  -0.000000
   91        1.812313  -0.000000
   92        2.063625  -0.000000
   93        2.394225  -0.000000
   94        2.442953  -0.000000
   95        3.371121  -0.000000
   96        3.680036  -0.000000
 
 -0.1875000E+00  0.6250000E-01  0.0000000E+00  0.6250000E-01
    1       -9.725314   1.000000
    2       -8.498251   1.000000
    3       -7.430642   1.000000
    4       -7.404040   1.000000
    5       -7.302882   1.000000
    6       -7.188460   1.000000
    7       -7.109703   1.000000
    8       -7.029556   1.000000
    9       -6.976549   1.000000
   10       -6.895554   1.000000
   11       -6.658907   1.000000
   12       -6.599285   1.000000
   13       -6.561760   1.000000
   14       -6.543932   1.000000
   15       -6.463350   1.000000
   16       -6.340938   1.000000
   17       -6.271985   1.000000
   18       -6.179018   1.000000
   19       -6.095030   1.000000
   20       -5.652963   1.000000
   21       -5.621347   1.000000
   22       -5.589967   1.000000
   23       -5.214445   1.000000
   24       -4.955780   1.000000
   25       -4.896711   1.000000
   26       -4.827085   1.000000
   27       -4.715081   1.000000
   28       -4.666256   1.000000
   29       -4.551542   1.000000
   30       -4.502737   1.000000
   31       -4.474885   1.000000
   32       -4.407160   1.000000
   33       -4.193806   1.000000
   34       -4.144874   1.000000
   35       -4.108209   1.000000
   36       -3.986037   1.000000
   37       -3.965436   1.000000
   38       -3.918423   1.000000
   39       -3.888870   1.000000
   40       -3.851342   1.000000
   41       -3.760215   1.000000
   42       -3.748894   1.000000
   43       -3.739961   1.000000
   44       -3.662112   1.000000
   45       -3.623776   1.000000
   46       -3.482717   1.000000
   47       -3.365199   1.000000
   48       -3.344601   1.000000
   49       -3.044783   1.000000
   50       -2.956657   1.000000
   51       -2.786512   1.000000
   52       -2.694940   1.000000
   53       -2.521012   1.000000
   54       -2.475730   1.000000
   55       -2.435810   1.000000
   56       -2.333075   1.000000
   57       -2.283400   1.000000
   58       -2.144081   1.000000
   59       -2.081395   1.000000
   60       -2.054889   1.000000
   61       -2.005764   1.000000
   62       -1.920108   1.000000
   63       -1.852941   1.000000
   64       -1.809294   1.000000
   65       -1.763079   1.000000
   66       -1.681676   1.000000
   67       -1.504971   1.000002
   68       -1.400534   1.000066
   69       -1.329045   1.000442
   70       -1.311203   1.000680
   71       -1.236446   1.003389
   72       -1.220066   1.004608
   73       -1.163822   1.011589
   74       -1.102218   1.024415
   75       -1.050677   1.034393
   76       -1.005672   1.032021
   77       -0.937507   0.975310
   78       -0.859146   0.780808
   79       -0.825430   0.655159
   80       -0.769705   0.422749
   81       -0.679947   0.108476
   82       -0.571859  -0.031616
   83       -0.526888  -0.034553
   84       -0.473740  -0.024384
   85       -0.301643  -0.001560
   86       -0.148026  -0.000029
   87        0.427757  -0.000000
   88        0.557992  -0.000000
   89        0.875285  -0.000000
   90        1.127768  -0.000000
   91        1.573613  -0.000000
   92        1.739904  -0.000000
   93        2.217904  -0.000000
   94        2.654503  -0.000000
   95        2.938167  -0.000000
   96        3.522295  -0.000000
 
 -0.6250000E-01  0.6250000E-01  0.0000000E+00  0.3125000E-01
    1      -10.058745   1.000000
    2       -8.822771   1.000000
    3       -7.755826   1.000000
    4       -7.615735   1.000000
    5       -7.375733   1.000000
    6       -7.370864   1.000000
    7       -7.301552   1.000000
    8       -7.211623   1.000000
    9       -7.193495   1.000000
   10       -7.155579   1.000000
   11       -6.763939   1.000000
   12       -6.746541   1.000000
   13       -6.727874   1.000000
   14       -6.707338   1.000000
   15       -6.685711   1.000000
   16       -6.526396   1.000000
   17       -6.467749   1.000000
   18       -6.415806   1.000000
   19       -6.385757   1.000000
   20       -5.726719   1.000000
   21       -5.715122   1.000000
   22       -5.696779   1.000000
   23       -5.232933   1.000000
   24       -4.877062   1.000000
   25       -4.860539   1.000000
   26       -4.801757   1.000000
   27       -4.647484   1.000000
   28       -4.609837   1.000000
   29       -4.585166   1.000000
   30       -4.541176   1.000000
   31       -4.440306   1.000000
   32       -4.356423   1.000000
   33       -4.219236   1.000000
   34       -4.156414   1.000000
   35       -4.108394   1.000000
   36       -4.033468   1.000000
   37       -3.964679   1.000000
   38       -3.921816   1.000000
   39       -3.902465   1.000000
   40       -3.859787   1.000000
   41       -3.723227   1.000000
   42       -3.581915   1.000000
   43       -3.550135   1.000000
   44       -3.526432   1.000000
   45       -3.477938   1.000000
   46       -3.457945   1.000000
   47       -3.182117   1.000000
   48       -3.137853   1.000000
   49       -2.932450   1.000000
   50       -2.793897   1.000000
   51       -2.666856   1.000000
   52       -2.456738   1.000000
   53       -2.340437   1.000000
   54       -2.307028   1.000000
   55       -2.105436   1.000000
   56       -2.034008   1.000000
   57       -1.865931   1.000000
   58       -1.823109   1.000000
   59       -1.746560   1.000000
   60       -1.733669   1.000000
   61       -1.653478   1.000000
   62       -1.641904   1.000000
   63       -1.502019   1.000003
   64       -1.313104   1.000650
   65       -1.296467   1.000957
   66       -1.227473   1.004019
   67       -1.147986   1.014443
   68       -1.050974   1.034359
   69       -1.007910   1.032601
   70       -0.999582   1.030124
   71       -0.941647   0.981402
   72       -0.886063   0.864602
   73       -0.815332   0.614274
   74       -0.803914   0.566910
   75       -0.745790   0.325546
   76       -0.726283   0.251960
   77       -0.709308   0.193730
   78       -0.626842   0.008427
   79       -0.581098  -0.028367
   80       -0.574080  -0.030939
   81       -0.444165  -0.017710
   82       -0.363668  -0.005287
   83       -0.270985  -0.000784
   84       -0.138937  -0.000022
   85        0.058944  -0.000000
   86        0.142948  -0.000000
   87        0.224539  -0.000000
   88        0.844653  -0.000000
   89        0.898528  -0.000000
   90        0.925714  -0.000000
   91        1.374355  -0.000000
   92        1.498265  -0.000000
   93        2.011452  -0.000000
   94        2.196986  -0.000000
   95        2.472091  -0.000000
   96        2.887676  -0.000000
 
  0.1875000E+00  0.1875000E+00  0.0000000E+00  0.3125000E-01
    1       -9.856915   1.000000
    2       -8.625392   1.000000
    3       -7.555729   1.000000
    4       -7.427386   1.000000
    5       -7.411868   1.000000
    6       -7.187332   1.000000
    7       -7.182789   1.000000
    8       -7.158494   1.000000
    9       -7.027175   1.000000
   10       -7.012789   1.000000
   11       -6.695909   1.000000
   12       -6.663613   1.000000
   13       -6.622923   1.000000
   14       -6.617596   1.000000
   15       -6.530262   1.000000
   16       -6.411535   1.000000
   17       -6.365826   1.000000
   18       -6.249895   1.000000
   19       -6.225614   1.000000
   20       -5.682245   1.000000
   21       -5.660088   1.000000
   22       -5.630137   1.000000
   23       -5.219397   1.000000
   24       -4.908651   1.000000
   25       -4.884891   1.000000
   26       -4.818911   1.000000
   27       -4.677445   1.000000
   28       -4.616509   1.000000
   29       -4.537966   1.000000
   30       -4.518899   1.000000
   31       -4.466373   1.000000
   32       -4.444073   1.000000
   33       -4.174085   1.000000
   34       -4.099629   1.000000
   35       -4.079762   1.000000
   36       -4.066126   1.000000
   37       -3.962187   1.000000
   38       -3.944857   1.000000
   39       -3.842883   1.000000
   40       -3.807101   1.000000
   41       -3.797785   1.000000
   42       -3.719064   1.000000
   43       -3.671882   1.000000
   44       -3.594585   1.000000
   45       -3.584249   1.000000
   46       -3.443736   1.000000
   47       -3.382241   1.000000
   48       -3.267099   1.000000
   49       -2.946702   1.000000
   50       -2.936949   1.000000
   51       -2.677336   1.000000
   52       -2.667950   1.000000
   53       -2.433716   1.000000
   54       -2.398033   1.000000
   55       -2.322849   1.000000
   56       -2.169044   1.000000
   57       -2.100034   1.000000
   58       -1.989850   1.000000
   59       -1.939946   1.000000
   60       -1.905398   1.000000
   61       -1.875127   1.000000
   62       -1.768459   1.000000
   63       -1.747462   1.000000
   64       -1.682646   1.000000
   65       -1.661518   1.000000
   66       -1.473390   1.000007
   67       -1.321831   1.000527
   68       -1.276440   1.001495
   69       -1.196880   1.006913
   70       -1.193335   1.007333
   71       -1.129980   1.018128
   72       -1.090706   1.027055
   73       -1.035497   1.035434
   74       -1.035131   1.035441
   75       -0.977845   1.018992
   76       -0.932611   0.967589
   77       -0.813455   0.606557
   78       -0.796362   0.535154
   79       -0.776890   0.452873
   80       -0.691817   0.140432
   81       -0.620027   0.000393
   82       -0.468270  -0.023117
   83       -0.453869  -0.019833
   84       -0.422369  -0.013364
   85       -0.287734  -0.001150
   86       -0.247668  -0.000448
   87        0.564209  -0.000000
   88        0.866960  -0.000000
   89        0.919445  -0.000000
   90        0.941184  -0.000000
   91        1.491473  -0.000000
   92        1.530611  -0.000000
   93        2.161028  -0.000000
   94        2.249532  -0.000000
   95        2.827173  -0.000000
   96        3.515226  -0.000000
 
  0.3125000E+00  0.1875000E+00  0.0000000E+00  0.6250000E-01
    1       -9.532081   1.000000
    2       -8.313793   1.000000
    3       -7.361343   1.000000
    4       -7.244825   1.000000
    5       -7.209421   1.000000
    6       -7.125907   1.000000
    7       -7.013564   1.000000
    8       -6.921867   1.000000
    9       -6.845874   1.000000
   10       -6.755656   1.000000
   11       -6.586667   1.000000
   12       -6.511915   1.000000
   13       -6.478973   1.000000
   14       -6.434271   1.000000
   15       -6.388703   1.000000
   16       -6.224072   1.000000
   17       -6.149394   1.000000
   18       -6.054225   1.000000
   19       -5.924900   1.000000
   20       -5.609367   1.000000