       N       E                     dE             d eps       ncg     rms          rms(c)
DAV:   1     0.982468647355E+03    0.98247E+03   -0.55704E+04  3840   0.102E+03
DAV:   2    -0.432993633086E+02   -0.10258E+04   -0.99618E+03  5592   0.250E+02
DAV:   3    -0.101630041331E+03   -0.58331E+02   -0.56615E+02  4800   0.600E+01
DAV:   4    -0.102867702570E+03   -0.12377E+01   -0.12331E+01  5568   0.100E+01
DAV:   5    -0.102897371446E+03   -0.29669E-01   -0.29661E-01  5784   0.122E+00    0.419E+01
DAV:   6    -0.100123416447E+03    0.27740E+01   -0.40965E+01  5232   0.233E+01    0.336E+01
DAV:   7    -0.145499130291E+03   -0.45376E+02   -0.55074E+02  6312   0.784E+01    0.654E+01
DAV:   8    -0.124147227866E+03    0.21352E+02   -0.17482E+02  5592   0.407E+01    0.442E+01
DAV:   9    -0.129935692157E+03   -0.57885E+01   -0.18608E+02  5664   0.488E+01    0.441E+01
DAV:  10    -0.101536238530E+03    0.28399E+02   -0.15470E+02  5784   0.494E+01    0.214E+01
DAV:  11    -0.961309903693E+02    0.54052E+01   -0.26997E+01  4416   0.187E+01    0.913E+00
DAV:  12    -0.961822645220E+02   -0.51274E-01   -0.23057E+00  4800   0.550E+00    0.790E+00
DAV:  13    -0.962130025287E+02   -0.30738E-01   -0.50440E-01  6024   0.305E+00    0.695E+00
DAV:  14    -0.960873985146E+02    0.12560E+00   -0.13118E+00  5976   0.404E+00    0.420E+00
DAV:  15    -0.961217789581E+02   -0.34380E-01   -0.91994E-01  4632   0.314E+00    0.375E+00
DAV:  16    -0.960948919836E+02    0.26887E-01   -0.92806E-02  4320   0.114E+00    0.317E+00
DAV:  17    -0.960401702783E+02    0.54722E-01   -0.46339E-01  5304   0.187E+00    0.178E+00
DAV:  18    -0.960206926876E+02    0.19478E-01   -0.10436E-01  5640   0.119E+00    0.127E+00
DAV:  19    -0.960191403913E+02    0.15523E-02   -0.14981E-02  4800   0.428E-01    0.130E+00
DAV:  20    -0.960183531550E+02    0.78724E-03   -0.46090E-04  4608   0.777E-02    0.126E+00
DAV:  21    -0.960157693803E+02    0.25838E-02   -0.86842E-04  4968   0.118E-01    0.115E+00
DAV:  22    -0.960052400410E+02    0.10529E-01   -0.34084E-02  4608   0.683E-01    0.363E-01
DAV:  23    -0.960050412313E+02    0.19881E-03   -0.25887E-03  4896   0.167E-01    0.233E-01
DAV:  24    -0.960050318990E+02    0.93323E-05   -0.36918E-04  5952   0.671E-02    0.199E-01
DAV:  25    -0.960049712227E+02    0.60676E-04   -0.23175E-04  4656   0.600E-02    0.111E-01
DAV:  26    -0.960050310366E+02   -0.59814E-04   -0.19371E-04  4584   0.531E-02    0.993E-02
DAV:  27    -0.960050340182E+02   -0.29815E-05   -0.58235E-04  4872   0.748E-02    0.349E-02
DAV:  28    -0.960050765481E+02   -0.42530E-04   -0.30531E-05  2832   0.198E-02    0.148E-02
DAV:  29    -0.960051337936E+02   -0.57245E-04   -0.85200E-06  2808   0.100E-02    0.556E-03
DAV:  30    -0.960051922698E+02   -0.58476E-04   -0.81785E-06  2856   0.825E-03    0.139E-02
DAV:  31    -0.960052230121E+02   -0.30742E-04   -0.11281E-05  2832   0.107E-02    0.876E-03
DAV:  32    -0.960052367851E+02   -0.13773E-04   -0.18769E-06  2664   0.393E-03    0.627E-03
DAV:  33    -0.960052506515E+02   -0.13866E-04   -0.58630E-07  2784   0.222E-03    0.452E-03
DAV:  34    -0.960052588576E+02   -0.82061E-05   -0.53911E-07  2712   0.209E-03
   1 F= -.96005212E+02 E0= -.95995752E+02  d E =-.283802E-01
