       N       E                     dE             d eps       ncg     rms          rms(c)
DAV:   1     0.977314789000E+03    0.97731E+03   -0.55472E+04  9984   0.101E+03
DAV:   2    -0.376412053127E+02   -0.10150E+04   -0.98256E+03 14424   0.248E+02
DAV:   3    -0.966842447709E+02   -0.59043E+02   -0.57047E+02 12432   0.599E+01
DAV:   4    -0.979874231531E+02   -0.13032E+01   -0.12937E+01 13872   0.102E+01
DAV:   5    -0.980250030893E+02   -0.37580E-01   -0.37568E-01 15192   0.138E+00    0.417E+01
DAV:   6    -0.952890533610E+02    0.27359E+01   -0.35362E+01 12192   0.218E+01    0.336E+01
DAV:   7    -0.148394128915E+03   -0.53105E+02   -0.54725E+02 15072   0.809E+01    0.595E+01
DAV:   8    -0.122194316481E+03    0.26200E+02   -0.25949E+02 15720   0.440E+01    0.452E+01
DAV:   9    -0.114021819672E+03    0.81725E+01   -0.11004E+02 16272   0.477E+01    0.336E+01
DAV:  10    -0.943954963045E+02    0.19626E+02   -0.14180E+02 14712   0.379E+01    0.162E+01
DAV:  11    -0.926802360655E+02    0.17153E+01   -0.24080E+01 14232   0.169E+01    0.114E+01
DAV:  12    -0.920048506115E+02    0.67539E+00   -0.96568E+00 15600   0.941E+00    0.564E+00
DAV:  13    -0.918813969796E+02    0.12345E+00   -0.76798E-01 13752   0.329E+00    0.445E+00
DAV:  14    -0.918179731571E+02    0.63424E-01   -0.19981E-01 13848   0.168E+00    0.391E+00
DAV:  15    -0.918276388457E+02   -0.96657E-02   -0.87867E-01 13536   0.290E+00    0.313E+00
DAV:  16    -0.917722903799E+02    0.55348E-01   -0.33831E-01 12360   0.199E+00    0.109E+00
DAV:  17    -0.917617216997E+02    0.10569E-01   -0.47164E-02 13872   0.825E-01    0.525E-01
DAV:  18    -0.917600276277E+02    0.16941E-02   -0.12133E-02 12240   0.421E-01    0.509E-01
DAV:  19    -0.917590711330E+02    0.95649E-03   -0.10465E-02 12576   0.371E-01    0.460E-01
DAV:  20    -0.917575004614E+02    0.15707E-02   -0.14987E-02 14400   0.389E-01    0.189E-01
DAV:  21    -0.917572278021E+02    0.27266E-03   -0.14622E-03 12624   0.142E-01    0.119E-01
DAV:  22    -0.917571518562E+02    0.75946E-04   -0.51639E-04 13152   0.813E-02    0.873E-02
DAV:  23    -0.917571414951E+02    0.10361E-04   -0.35323E-04 11568   0.672E-02    0.506E-02
DAV:  24    -0.917571373669E+02    0.41282E-05   -0.63578E-05  7800   0.278E-02
   1 F= -.91757134E+02 E0= -.91752555E+02  d E =-.137346E-01
