 vasp.5.4.4.18Apr17-6-g9f103f2a35 (build Apr 28 2017 10:53:45) complex          
  
 executed on             LinuxIFC date 2020.02.16  21:32:55
 running on   24 total cores
 distrk:  each k-point on   24 cores,    1 groups
 distr:  one band on NCORES_PER_BAND=   1 cores,   24 groups


--------------------------------------------------------------------------------------------------------


 INCAR:
 POTCAR:    PAW_PBE Ir 06Sep2000                  
 POTCAR:    PAW_PBE Pt 04Feb2005                  
 POTCAR:    PAW_PBE Au 04Oct2007                  

 ----------------------------------------------------------------------------- 
|                                                                             |
|           W    W    AA    RRRRR   N    N  II  N    N   GGGG   !!!           |
|           W    W   A  A   R    R  NN   N  II  NN   N  G    G  !!!           |
|           W    W  A    A  R    R  N N  N  II  N N  N  G       !!!           |
|           W WW W  AAAAAA  RRRRR   N  N N  II  N  N N  G  GGG   !            |
|           WW  WW  A    A  R   R   N   NN  II  N   NN  G    G                |
|           W    W  A    A  R    R  N    N  II  N    N   GGGG   !!!           |
|                                                                             |
|      For optimal performance we recommend to set                            |
|        NCORE= 4 - approx SQRT( number of cores)                             |
|      NCORE specifies how many cores store one orbital (NPAR=cpu/NCORE).     |
|      This setting can  greatly improve the performance of VASP for DFT.     |
|      The default,   NCORE=1            might be grossly inefficient         |
|      on modern multi-core architectures or massively parallel machines.     |
|      Do your own testing !!!!                                               |
|      Unfortunately you need to use the default for GW and RPA calculations. |
|      (for HF NCORE is supported but not extensively tested yet)             |
|                                                                             |
 ----------------------------------------------------------------------------- 

 POTCAR:    PAW_PBE Ir 06Sep2000                  
   SHA256 =  7c6af8d4d487b237782eb51e6f62977b27a1da78c3c96acd1cebefd6c308f120 Ir
   COPYR  = (c) Copyright 06Sep2000 Georg Kresse                                
   COPYR  = This file is part of the software VASP. Any use, copying, and all ot
   COPYR  = If you do not have a valid VASP license, you may not use, copy or di
   VRHFIN =Ir: s1d8                                                             
   LEXCH  = PE                                                                  
   EATOM  =   560.1833 eV,   41.1723 Ry                                         
                                                                                
   TITEL  = PAW_PBE Ir 06Sep2000                                                
   LULTRA =        F    use ultrasoft PP ?                                      
   IUNSCR =        1    unscreen: 0-lin 1-nonlin 2-no                           
   RPACOR =    2.250    partial core radius                                     
   POMASS =  192.220; ZVAL   =    9.000    mass and valenz                      
   RCORE  =    2.600    outmost cutoff radius                                   
   RWIGS  =    2.690; RWIGS  =    1.423    wigner-seitz radius (au A)           
   ENMAX  =  210.864; ENMIN  =  158.148 eV                                      
   RCLOC  =    1.857    cutoff for local pot                                    
   LCOR   =        T    correct aug charges                                     
   LPAW   =        T    paw PP                                                  
   EAUG   =  318.962                                                            
   DEXC   =    0.000                                                            
   RMAX   =    2.667    core radius for proj-oper                               
   RAUG   =    1.300    factor for augmentation sphere                          
   RDEP   =    2.748    radius for radial grids                                 
   RDEPT  =    2.300    core radius for aug-charge                              
                                                                                
   Atomic configuration                                                         
   16 entries                                                                   
     n  l   j            E        occ.                                          
     1  0  0.50    -76100.0449   2.0000                                         
     2  0  0.50    -13308.1683   2.0000                                         
     2  1  1.50    -11558.0021   6.0000                                         
     3  0  0.50     -3110.7274   2.0000                                         
     3  1  1.50     -2599.2109   6.0000                                         
     3  2  2.50     -2037.1515  10.0000                                         
     4  0  0.50      -661.6001   2.0000                                         
     4  1  1.50      -493.8981   6.0000                                         
     4  2  2.50      -288.1909  10.0000                                         
     4  3  3.50       -59.5718  14.0000                                         
     5  0  0.50       -95.3879   2.0000                                         
     5  1  1.50       -52.2747   6.0000                                         
     5  2  2.50        -5.4180   8.0000                                         
     6  0  0.50        -5.5479   1.0000                                         
     6  1  1.50        -6.8029   0.0000                                         
     5  3  2.50        -1.3606   0.0000                                         
   Description                                                                  
     l       E           TYP  RCUT    TYP  RCUT                                 
     2     -5.4179967     23  2.600                                             
     2     -6.7785793     23  2.600                                             
     0     -5.5478636     23  2.600                                             
     0      2.2542272     23  2.600                                             
     1     -2.7211652     23  2.600                                             
     1     20.4087390     23  2.600                                             
  local pseudopotential read in
  partial core-charges read in
  partial kinetic energy density read in
  atomic valenz-charges read in
  non local Contribution for L=           2  read in
    real space projection operators read in
  non local Contribution for L=           2  read in
    real space projection operators read in
  non local Contribution for L=           0  read in
    real space projection operators read in
  non local Contribution for L=           0  read in
    real space projection operators read in
  non local Contribution for L=           1  read in
    real space projection operators read in
  non local Contribution for L=           1  read in
    real space projection operators read in
    PAW grid and wavefunctions read in
 
   number of l-projection  operators is LMAX  =           6
   number of lm-projection operators is LMMAX =          18
 
 POTCAR:    PAW_PBE Pt 04Feb2005                  
   SHA256 =  3ed90460adef76debcff1cfb73ee1349b515b1a3db03439735b44de3a8db7dc8 Pt
   COPYR  = (c) Copyright 04Feb2005 Georg Kresse                                
   COPYR  = This file is part of the software VASP. Any use, copying, and all ot
   COPYR  = If you do not have a valid VASP license, you may not use, copy or di
   VRHFIN =Pt: s1d9                                                             
   LEXCH  = PE                                                                  
   EATOM  =   729.1176 eV,   53.5886 Ry                                         
                                                                                
   TITEL  = PAW_PBE Pt 04Feb2005                                                
   LULTRA =        F    use ultrasoft PP ?                                      
   IUNSCR =        1    unscreen: 0-lin 1-nonlin 2-no                           
   RPACOR =    2.330    partial core radius                                     
   POMASS =  195.080; ZVAL   =   10.000    mass and valenz                      
   RCORE  =    2.600    outmost cutoff radius                                   
   RWIGS  =    2.750; RWIGS  =    1.455    wigner-seitz radius (au A)           
   ENMAX  =  230.283; ENMIN  =  172.712 eV                                      
   ICORE  =        3    local potential                                         
   LCOR   =        T    correct aug charges                                     
   LPAW   =        T    paw PP                                                  
   EAUG   =  358.966                                                            
   DEXC   =    0.000                                                            
   RMAX   =    2.658    core radius for proj-oper                               
   RAUG   =    1.300    factor for augmentation sphere                          
   RDEP   =    2.761    radius for radial grids                                 
   RDEPT  =    2.203    core radius for aug-charge                              
                                                                                
   Atomic configuration                                                         
   16 entries                                                                   
     n  l   j            E        occ.                                          
     1  0  0.50    -78401.1885   2.0000                                         
     2  0  0.50    -13770.7750   2.0000                                         
     2  1  1.50    -11931.0468   6.0000                                         
     3  0  0.50     -3234.7234   2.0000                                         
     3  1  1.50     -2699.2216   6.0000                                         
     3  2  2.50     -2119.5714  10.0000                                         
     4  0  0.50      -695.1528   2.0000                                         
     4  1  1.50      -519.6034   6.0000                                         
     4  2  2.50      -306.6786  10.0000                                         
     4  3  3.50       -70.1041  14.0000                                         
     5  0  0.50      -101.7747   2.0000                                         
     5  1  1.50       -55.9873   6.0000                                         
     5  2  2.50        -6.1423   9.0000                                         
     6  0  0.50        -5.6573   1.0000                                         
     6  1  1.50        -6.8029   0.0000                                         
     5  3  2.50        -1.3606   0.0000                                         
   Description                                                                  
     l       E           TYP  RCUT    TYP  RCUT                                 
     2     -6.1423404     23  2.500                                             
     2     -7.5029230     23  2.500                                             
     0     -5.6573207     23  2.500                                             
     0      0.7416693     23  2.500                                             
     1     -2.7211652     23  2.600                                             
     1     20.4087390     23  2.600                                             
     3     -1.3605826     23  2.500                                             
  local pseudopotential read in
  partial core-charges read in
  partial kinetic energy density read in
  atomic valenz-charges read in
  non local Contribution for L=           2  read in
    real space projection operators read in
  non local Contribution for L=           2  read in
    real space projection operators read in
  non local Contribution for L=           0  read in
    real space projection operators read in
  non local Contribution for L=           0  read in
    real space projection operators read in
  non local Contribution for L=           1  read in
    real space projection operators read in
  non local Contribution for L=           1  read in
    real space projection operators read in
    PAW grid and wavefunctions read in
 
   number of l-projection  operators is LMAX  =           6
   number of lm-projection operators is LMMAX =          18
 
 POTCAR:    PAW_PBE Au 04Oct2007                  
   SHA256 =  d0044ae04e2bdce24051b198fc5c053d722a5bc6fe3c3b100514a13fc5d2db88 Au
   COPYR  = (c) Copyright 04Oct2007 Georg Kresse                                
   COPYR  = This file is part of the software VASP. Any use, copying, and all ot
   COPYR  = If you do not have a valid VASP license, you may not use, copy or di
   VRHFIN =Au: s1d10                                                            
   LEXCH  = PE                                                                  
   EATOM  =   926.0867 eV,   68.0654 Ry                                         
                                                                                
   TITEL  = PAW_PBE Au 04Oct2007                                                
   LULTRA =        F    use ultrasoft PP ?                                      
   IUNSCR =        1    unscreen: 0-lin 1-nonlin 2-no                           
   RPACOR =    2.330    partial core radius                                     
   POMASS =  196.966; ZVAL   =   11.000    mass and valenz                      
   RCORE  =    2.500    outmost cutoff radius                                   
   RWIGS  =    2.840; RWIGS  =    1.503    wigner-seitz radius (au A)           
   ENMAX  =  229.943; ENMIN  =  172.457 eV                                      
   ICORE  =        3    local potential                                         
   LCOR   =        T    correct aug charges                                     
   LPAW   =        T    paw PP                                                  
   EAUG   =  356.670                                                            
   DEXC   =    0.000                                                            
   RMAX   =    2.562    core radius for proj-oper                               
   RAUG   =    1.300    factor for augmentation sphere                          
   RDEP   =    2.598    radius for radial grids                                 
   RDEPT  =    2.193    core radius for aug-charge                              
                                                                                
   Atomic configuration                                                         
   16 entries                                                                   
     n  l   j            E        occ.                                          
     1  0  0.50    -80748.5001   2.0000                                         
     2  0  0.50    -14244.7466   2.0000                                         
     2  1  1.50    -12310.9591   6.0000                                         
     3  0  0.50     -3362.1768   2.0000                                         
     3  1  1.50     -2801.5463   6.0000                                         
     3  2  2.50     -2203.8206  10.0000                                         
     4  0  0.50      -729.8168   2.0000                                         
     4  1  1.50      -546.0527   6.0000                                         
     4  2  2.50      -325.7302  10.0000                                         
     4  3  3.50       -81.1472  14.0000                                         
     5  0  0.50      -108.3201   2.0000                                         
     5  1  1.50       -59.7479   6.0000                                         
     5  2  2.50        -6.8783  10.0000                                         
     6  0  0.50        -5.7602   1.0000                                         
     6  1  1.50        -6.8029   0.0000                                         
     5  3  2.50        -1.3606   0.0000                                         
   Description                                                                  
     l       E           TYP  RCUT    TYP  RCUT                                 
     2     -6.8782861     23  2.500                                             
     2     -8.2388687     23  2.500                                             
     0     -5.7601759     23  2.500                                             
     0     -0.8493231     23  2.500                                             
     1     -2.7211652     23  2.500                                             
     1     27.2116520     23  2.500                                             
     3     -1.3605826     23  2.500                                             
  local pseudopotential read in
  partial core-charges read in
  partial kinetic energy density read in
  atomic valenz-charges read in
  non local Contribution for L=           2  read in
    real space projection operators read in
  non local Contribution for L=           2  read in
    real space projection operators read in
  non local Contribution for L=           0  read in
    real space projection operators read in
  non local Contribution for L=           0  read in
    real space projection operators read in
  non local Contribution for L=           1  read in
    real space projection operators read in
  non local Contribution for L=           1  read in
    real space projection operators read in
    PAW grid and wavefunctions read in
 
   number of l-projection  operators is LMAX  =           6
   number of lm-projection operators is LMMAX =          18
 
  PAW_PBE Ir 06Sep2000                  :
 energy of atom  1       EATOM= -560.1833
 kinetic energy error for atom=    0.0056 (will be added to EATOM!!)
  PAW_PBE Pt 04Feb2005                  :
 energy of atom  2       EATOM= -729.1176
 kinetic energy error for atom=    0.0144 (will be added to EATOM!!)
  PAW_PBE Au 04Oct2007                  :
 energy of atom  3       EATOM= -926.0867
 kinetic energy error for atom=    0.0152 (will be added to EATOM!!)
 
 
 POSCAR: Ir Pt Au                                
  positions in cartesian coordinates
  No initial velocities read in
 exchange correlation table for  LEXCH =        8
   RHO(1)=    0.500       N(1)  =     2000
   RHO(2)=  100.500       N(2)  =     4000
 


--------------------------------------------------------------------------------------------------------


 ion  position               nearest neighbor table
   1  0.000  0.000  0.390-   3 2.78   3 2.78   4 2.78   4 2.78   2 2.78   2 2.78   5 2.82   6 2.82
                             7 2.82
   2  0.500  0.000  0.390-   4 2.78   3 2.78   4 2.78   3 2.78   1 2.78   1 2.78   6 2.82   5 2.82
                             8 2.82
   3  0.000  0.500  0.390-   1 2.78   1 2.78   2 2.78   2 2.78   4 2.78   4 2.78   7 2.82   5 2.82
                             8 2.82
   4  0.500  0.500  0.390-   2 2.78   1 2.78   2 2.78   1 2.78   3 2.78   3 2.78   8 2.82   7 2.82
                             6 2.82
   5  0.167  0.167  0.465-   7 2.78   7 2.78   8 2.78   8 2.78   6 2.78   6 2.78   9 2.80  16 2.80
                            10 2.80   1 2.82   3 2.82   2 2.82
   6  0.667  0.167  0.465-   8 2.78   7 2.78   8 2.78   7 2.78   5 2.78   5 2.78  10 2.80  11 2.80
                             9 2.80   2 2.82   4 2.82   1 2.82
   7  0.167  0.667  0.465-   5 2.78   5 2.78   6 2.78   6 2.78   8 2.78   8 2.78  10 2.80  11 2.80
                            16 2.80   3 2.82   4 2.82   1 2.82
   8  0.667  0.667  0.465-   6 2.78   5 2.78   6 2.78   5 2.78   7 2.78   7 2.78   9 2.80  16 2.80
                            11 2.80   4 2.82   2 2.82   3 2.82
   9  0.833  0.333  0.539-  11 2.78  11 2.78  16 2.78  16 2.78  10 2.78  10 2.78   5 2.80   8 2.80
                             6 2.80  14 2.83  12 2.83  15 2.83
  10  0.333  0.333  0.539-  16 2.78  11 2.78  16 2.78  11 2.78   9 2.78   9 2.78   6 2.80   7 2.80
                             5 2.80  15 2.83  13 2.83  14 2.83
  11  0.833  0.833  0.539-   9 2.78   9 2.78  10 2.78  10 2.78  16 2.78  16 2.78   6 2.80   7 2.80
                             8 2.80  12 2.83  14 2.83  13 2.83
  12  0.000  0.000  0.615-  14 2.78  14 2.78  15 2.78  15 2.78  13 2.78  13 2.78  11 2.83   9 2.83
                            16 2.83
  13  0.500  0.000  0.615-  15 2.78  14 2.78  15 2.78  14 2.78  12 2.78  12 2.78  16 2.83  10 2.83
                            11 2.83
  14  0.000  0.500  0.615-  12 2.78  12 2.78  13 2.78  13 2.78  15 2.78  15 2.78   9 2.83  11 2.83
                            10 2.83
  15  0.500  0.500  0.615-  13 2.78  12 2.78  13 2.78  12 2.78  14 2.78  14 2.78  10 2.83  16 2.83
                             9 2.83
  16  0.333  0.833  0.539-  10 2.78   9 2.78  10 2.78   9 2.78  11 2.78  11 2.78   5 2.80   8 2.80
                             7 2.80  13 2.83  15 2.83  12 2.83
 
  LATTYP: Found a hexagonal cell.
 ALAT       =     5.5578593001
 C/A-ratio  =     5.5429542221
  
  Lattice vectors:
  
 A1 = (   2.7789296501,  -4.8132473446,   0.0000000000)
 A2 = (  -5.5578593001,   0.0000000000,   0.0000000000)
 A3 = (   0.0000000000,   0.0000000000, -30.8069596737)


Analysis of symmetry for initial positions (statically):
=====================================================================
 Subroutine PRICEL returns:
 Original cell was already a primitive cell.
 

 Routine SETGRP: Setting up the symmetry group for a 
 hexagonal supercell.


 Subroutine GETGRP returns: Found  2 space group operations
 (whereof  2 operations were pure point group operations)
 out of a pool of 24 trial point group operations.


The static configuration has the point symmetry C_1h.


Analysis of symmetry for dynamics (positions and initial velocities):
=====================================================================
 Subroutine PRICEL returns:
 Original cell was already a primitive cell.
 

 Routine SETGRP: Setting up the symmetry group for a 
 hexagonal supercell.


 Subroutine GETGRP returns: Found  2 space group operations
 (whereof  2 operations were pure point group operations)
 out of a pool of 24 trial point group operations.


The dynamic configuration has the point symmetry C_1h.


Analysis of constrained symmetry for selective dynamics:
=====================================================================
 Subroutine PRICEL returns:
 Original cell was already a primitive cell.
 

 Routine SETGRP: Setting up the symmetry group for a 
 hexagonal supercell.


 Subroutine GETGRP returns: Found  2 space group operations
 (whereof  2 operations were pure point group operations)
 out of a pool of 24 trial point group operations.


The constrained configuration has the point symmetry C_1h.


 Subroutine INISYM returns: Found  2 space group operations
 (whereof  2 operations are pure point group operations),
 and found     1 'primitive' translations

 
 
 KPOINTS: KPOINTS created by Atomic Simulation Env

Automatic generation of k-mesh.
Space group operators:
 irot       det(A)        alpha          n_x          n_y          n_z        tau_x        tau_y        tau_z
    1     1.000000     0.000001     1.000000     0.000000     0.000000     0.000000     0.000000     0.000000
    2    -1.000000   180.000000    -0.500000    -0.866025     0.000000     0.000000     0.000000     0.000000
 
 Subroutine IBZKPT returns following result:
 ===========================================
 
 Found     52 irreducible k-points:
 
 Following reciprocal coordinates:
            Coordinates               Weight
  0.062500  0.062500  0.000000     32.000000
 -0.062500  0.000000  0.000000     16.000000
  0.187500  0.062500  0.000000     32.000000
  0.125000  0.187500  0.000000     32.000000
 -0.062500  0.125000  0.000000     32.000000
  0.312500  0.062500  0.000000     32.000000
  0.250000  0.312500  0.000000     32.000000
 -0.062500  0.250000  0.000000     32.000000
  0.437500  0.062500  0.000000     32.000000
  0.375000  0.437500  0.000000     32.000000
 -0.062500  0.375000  0.000000     32.000000
 -0.437500  0.062500  0.000000     32.000000
  0.500000 -0.437500  0.000000     32.000000
 -0.062500  0.500000  0.000000     32.000000
 -0.312500  0.062500  0.000000     32.000000
 -0.375000 -0.312500  0.000000     32.000000
 -0.062500 -0.375000  0.000000     32.000000
 -0.187500  0.062500  0.000000     32.000000
 -0.250000 -0.187500  0.000000     32.000000
 -0.062500 -0.250000  0.000000     32.000000
 -0.062500  0.062500  0.000000     32.000000
 -0.062500 -0.125000  0.000000     16.000000
  0.187500  0.187500  0.000000     32.000000
 -0.187500  0.000000  0.000000     16.000000
  0.312500  0.187500  0.000000     32.000000
  0.125000  0.312500  0.000000     32.000000
 -0.187500  0.125000  0.000000     32.000000
  0.437500  0.187500  0.000000     32.000000
  0.250000  0.437500  0.000000     32.000000
 -0.187500  0.250000  0.000000     32.000000
 -0.437500  0.187500  0.000000     32.000000
  0.375000 -0.437500  0.000000     32.000000
 -0.187500  0.375000  0.000000     32.000000
 -0.312500  0.187500  0.000000     32.000000
  0.500000 -0.312500  0.000000     32.000000
 -0.187500  0.500000  0.000000     32.000000
 -0.187500  0.187500  0.000000     32.000000
 -0.187500 -0.375000  0.000000     16.000000
  0.312500  0.312500  0.000000     32.000000
 -0.312500  0.000000  0.000000     16.000000
  0.437500  0.312500  0.000000     32.000000
  0.125000  0.437500  0.000000     32.000000
 -0.312500  0.125000  0.000000     32.000000
 -0.437500  0.312500  0.000000     32.000000
  0.250000 -0.437500  0.000000     32.000000
 -0.312500  0.250000  0.000000     32.000000
 -0.312500  0.312500  0.000000     32.000000
 -0.312500  0.375000  0.000000     16.000000
  0.437500  0.437500  0.000000     32.000000
 -0.437500  0.000000  0.000000     16.000000
 -0.437500  0.437500  0.000000     32.000000
 -0.437500  0.125000  0.000000     16.000000
 
 Following cartesian coordinates:
            Coordinates               Weight
  0.011245  0.006492  0.000000     32.000000
 -0.011245  0.006492  0.000000     16.000000
  0.033736 -0.006492  0.000000     32.000000
  0.022491  0.025970  0.000000     32.000000
 -0.011245  0.032462  0.000000     32.000000
  0.056227 -0.019477  0.000000     32.000000
  0.044981  0.038955  0.000000     32.000000
 -0.011245  0.058432  0.000000     32.000000
  0.078717 -0.032462  0.000000     32.000000
  0.067472  0.051940  0.000000     32.000000
 -0.011245  0.084402  0.000000     32.000000
 -0.078717  0.058432  0.000000     32.000000
  0.089963 -0.142835  0.000000     32.000000
 -0.011245  0.110372  0.000000     32.000000
 -0.056227  0.045447  0.000000     32.000000
 -0.067472 -0.025970  0.000000     32.000000
 -0.011245 -0.071417  0.000000     32.000000
 -0.033736  0.032462  0.000000     32.000000
 -0.044981 -0.012985  0.000000     32.000000
 -0.011245 -0.045447  0.000000     32.000000
 -0.011245  0.019477  0.000000     32.000000
 -0.011245 -0.019477  0.000000     16.000000
  0.033736  0.019477  0.000000     32.000000
 -0.033736  0.019477  0.000000     16.000000
  0.056227  0.006492  0.000000     32.000000
  0.022491  0.051940  0.000000     32.000000
 -0.033736  0.045447  0.000000     32.000000
  0.078717 -0.006492  0.000000     32.000000
  0.044981  0.064925  0.000000     32.000000
 -0.033736  0.071417  0.000000     32.000000
 -0.078717  0.084402  0.000000     32.000000
  0.067472 -0.129850  0.000000     32.000000
 -0.033736  0.097387  0.000000     32.000000
 -0.056227  0.071417  0.000000     32.000000
  0.089963 -0.116865  0.000000     32.000000
 -0.033736  0.123357  0.000000     32.000000
 -0.033736  0.058432  0.000000     32.000000
 -0.033736 -0.058432  0.000000     16.000000
  0.056227  0.032462  0.000000     32.000000
 -0.056227  0.032462  0.000000     16.000000
  0.078717  0.019477  0.000000     32.000000
  0.022491  0.077910  0.000000     32.000000
 -0.056227  0.058432  0.000000     32.000000
 -0.078717  0.110372  0.000000     32.000000
  0.044981 -0.116865  0.000000     32.000000
 -0.056227  0.084402  0.000000     32.000000
 -0.056227  0.097387  0.000000     32.000000
 -0.056227  0.110372  0.000000     16.000000
  0.078717  0.045447  0.000000     32.000000
 -0.078717  0.045447  0.000000     16.000000
 -0.078717  0.136342  0.000000     32.000000
 -0.078717  0.071417  0.000000     16.000000
 


--------------------------------------------------------------------------------------------------------




 Dimension of arrays:
   k-points           NKPTS =     52   k-points in BZ     NKDIM =     52   number of bands    NBANDS=     96
   number of dos      NEDOS =    301   number of ions     NIONS =     16
   non local maximal  LDIM  =      6   non local SUM 2l+1 LMDIM =     18
   total plane-waves  NPLWV = 112896
   max r-space proj   IRMAX =      1   max aug-charges    IRDMAX=  10104
   dimension x,y,z NGX =    28 NGY =   28 NGZ =  144
   dimension x,y,z NGXF=    56 NGYF=   56 NGZF=  288
   support grid    NGXF=    56 NGYF=   56 NGZF=  288
   ions per type =               1  14   1
   NGX,Y,Z   is equivalent  to a cutoff of   8.38,  8.38,  7.77 a.u.
   NGXF,Y,Z  is equivalent  to a cutoff of  16.75, 16.75, 15.54 a.u.

 SYSTEM =  unknown system                          
 POSCAR =  Ir Pt Au                                

 Startparameter for this run:
   NWRITE =      2    write-flag & timer
   PREC   = normal    normal or accurate (medium, high low for compatibility)
   ISTART =      0    job   : 0-new  1-cont  2-samecut
   ICHARG =      2    charge: 1-file 2-atom 10-const
   ISPIN  =      1    spin polarized calculation?
   LNONCOLLINEAR =      F non collinear calculations
   LSORBIT =      F    spin-orbit coupling
   INIWAV =      1    electr: 0-lowe 1-rand  2-diag
   LASPH  =      F    aspherical Exc in radial PAW
   METAGGA=      F    non-selfconsistent MetaGGA calc.

 Electronic Relaxation 1
   ENCUT  =  350.0 eV  25.72 Ry    5.07 a.u.   8.48  8.48 46.99*2*pi/ulx,y,z
   ENINI  =  350.0     initial cutoff
   ENAUG  =  359.0 eV  augmentation charge cutoff
   NELM   =     60;   NELMIN=  2; NELMDL= -5     # of ELM steps 
   EDIFF  = 0.1E-04   stopping-criterion for ELM
   LREAL  =      F    real-space projection
   NLSPLINE    = F    spline interpolate recip. space projectors
   LCOMPAT=      F    compatible to vasp.4.4
   GGA_COMPAT  = T    GGA compatible to vasp.4.4-vasp.4.6
   LMAXPAW     = -100 max onsite density
   LMAXMIX     =    2 max onsite mixed and CHGCAR
   VOSKOWN=      0    Vosko Wilk Nusair interpolation
   ROPT   =    0.00000   0.00000   0.00000
 Ionic relaxation
   EDIFFG = -.5E-01   stopping-criterion for IOM
   NSW    =      0    number of steps for IOM
   NBLOCK =      1;   KBLOCK =      1    inner block; outer block 
   IBRION =     -1    ionic relax: 0-MD 1-quasi-New 2-CG
   NFREE  =      1    steps in history (QN), initial steepest desc. (CG)
   ISIF   =      2    stress and relaxation
   IWAVPR =     10    prediction:  0-non 1-charg 2-wave 3-comb
   ISYM   =      2    0-nonsym 1-usesym 2-fastsym
   LCORR  =      T    Harris-Foulkes like correction to forces

   POTIM  = 0.5000    time-step for ionic-motion
   TEIN   =    0.0    initial temperature
   TEBEG  =    0.0;   TEEND  =   0.0 temperature during run
   SMASS  =  -3.00    Nose mass-parameter (am)
   estimated Nose-frequenzy (Omega)   =  0.10E-29 period in steps =****** mass=  -0.706E-27a.u.
   SCALEE = 1.0000    scale energy and forces
   NPACO  =    256;   APACO  = 16.0  distance and # of slots for P.C.
   PSTRESS=    0.0 pullay stress

  Mass of Ions in am
   POMASS = 192.22195.08196.97
  Ionic Valenz
   ZVAL   =   9.00 10.00 11.00
  Atomic Wigner-Seitz radii
   RWIGS  =  -1.00 -1.00 -1.00
  virtual crystal weights 
   VCA    =   1.00  1.00  1.00
   NELECT =     160.0000    total number of electrons
   NUPDOWN=      -1.0000    fix difference up-down

 DOS related values:
   EMIN   =  10.00;   EMAX   =-10.00  energy-range for DOS
   EFERMI =   0.00
   ISMEAR =     1;   SIGMA  =   0.20  broadening in eV -4-tet -1-fermi 0-gaus

 Electronic relaxation 2 (details)
   IALGO  =     38    algorithm
   LDIAG  =      T    sub-space diagonalisation (order eigenvalues)
   LSUBROT=      F    optimize rotation matrix (better conditioning)
   TURBO    =      0    0=normal 1=particle mesh
   IRESTART =      0    0=no restart 2=restart with 2 vectors
   NREBOOT  =      0    no. of reboots
   NMIN     =      0    reboot dimension
   EREF     =   0.00    reference energy to select bands
   IMIX   =      4    mixing-type and parameters
     AMIX     =   0.40;   BMIX     =  1.00
     AMIX_MAG =   1.60;   BMIX_MAG =  1.00
     AMIN     =   0.10
     WC   =   100.;   INIMIX=   1;  MIXPRE=   1;  MAXMIX= -45

 Intra band minimization:
   WEIMIN = 0.0000     energy-eigenvalue tresh-hold
   EBREAK =  0.26E-07  absolut break condition
   DEPER  =   0.30     relativ break condition  

   TIME   =   0.40     timestep for ELM

  volume/ion in A,a.u.               =      51.51       347.59
  Fermi-wavevector in a.u.,A,eV,Ry     =   0.947945  1.791357 12.226201  0.898600
  Thomas-Fermi vector in A             =   2.076087
 
 Write flags
   LWAVE        =      F    write WAVECAR
   LDOWNSAMPLE  =      F    k-point downsampling of WAVECAR
   LCHARG       =      F    write CHGCAR
   LVTOT        =      F    write LOCPOT, total local potential
   LVHAR        =      F    write LOCPOT, Hartree potential only
   LELF         =      F    write electronic localiz. function (ELF)
   LORBIT       =      0    0 simple, 1 ext, 2 COOP (PROOUT), +10 PAW based schemes


 Dipole corrections
   LMONO  =      F    monopole corrections only (constant potential shift)
   LDIPOL =      F    correct potential (dipole corrections)
   IDIPOL =      3    1-x, 2-y, 3-z, 4-all directions 
   EPSILON=  1.0000000 bulk dielectric constant

 Exchange correlation treatment:
   GGA     =    PE    GGA type
   LEXCH   =     8    internal setting for exchange type
   VOSKOWN=      0    Vosko Wilk Nusair interpolation
   LHFCALC =     F    Hartree Fock is set to
   LHFONE  =     F    Hartree Fock one center treatment
   AEXX    =    0.0000 exact exchange contribution

 Linear response parameters
   LEPSILON=     F    determine dielectric tensor
   LRPA    =     F    only Hartree local field effects (RPA)
   LNABLA  =     F    use nabla operator in PAW spheres
   LVEL    =     F    velocity operator in full k-point grid
   LINTERFAST=   F  fast interpolation
   KINTER  =     0    interpolate to denser k-point grid
   CSHIFT  =0.1000    complex shift for real part using Kramers Kronig
   OMEGAMAX=  -1.0    maximum frequency
   DEG_THRESHOLD= 0.2000000E-02 threshold for treating states as degnerate
   RTIME   =   -0.100 relaxation time in fs
  (WPLASMAI=    0.000 imaginary part of plasma frequency in eV, 0.658/RTIME)
   DFIELD  = 0.0000000 0.0000000 0.0000000 field for delta impulse in time
 
 Orbital magnetization related:
   ORBITALMAG=     F  switch on orbital magnetization
   LCHIMAG   =     F  perturbation theory with respect to B field
   DQ        =  0.001000  dq finite difference perturbation B field
   LLRAUG    =     F  two centre corrections for induced B field



--------------------------------------------------------------------------------------------------------


 Static calculation
 charge density and potential will be updated during run
 non-spin polarized calculation
 Variant of blocked Davidson
 Davidson routine will perform the subspace rotation
 perform sub-space diagonalisation
    after iterative eigenvector-optimisation
 modified Broyden-mixing scheme, WC =      100.0
 initial mixing is a Kerker type mixing with AMIX =  0.4000 and BMIX =      1.0000
 Hartree-type preconditioning will be used
 using additional bands           16
 reciprocal scheme for non local part
 use partial core corrections
 calculate Harris-corrections to forces 
   (improved forces if not selfconsistent)
 use gradient corrections 
 use of overlap-Matrix (Vanderbilt PP)
 Methfessel and Paxton  Order N= 1 SIGMA  =   0.20


--------------------------------------------------------------------------------------------------------


  energy-cutoff  :      350.00
  volume of cell :      824.13
      direct lattice vectors                 reciprocal lattice vectors
     5.557859300  0.000000000  0.000000000     0.179925390 -0.103879972  0.000000000
     2.778929650  4.813247345  0.000000000     0.000000000  0.207759944  0.000000000
     0.000000000  0.000000000 30.806959674     0.000000000  0.000000000  0.032460198

  length of vectors
     5.557859300  5.557859300 30.806959674     0.207759944  0.207759944  0.032460198


 
 k-points in units of 2pi/SCALE and weight: KPOINTS created by Atomic Simulation Env
   0.01124534  0.00649250  0.00000000       0.021
  -0.01124534  0.00649250  0.00000000       0.010
   0.03373601 -0.00649250  0.00000000       0.021
   0.02249067  0.02596999  0.00000000       0.021
  -0.01124534  0.03246249  0.00000000       0.021
   0.05622668 -0.01947749  0.00000000       0.021
   0.04498135  0.03895499  0.00000000       0.021
  -0.01124534  0.05843248  0.00000000       0.021
   0.07871736 -0.03246249  0.00000000       0.021
   0.06747202  0.05193999  0.00000000       0.021
  -0.01124534  0.08440248  0.00000000       0.021
  -0.07871736  0.05843248  0.00000000       0.021
   0.08996269 -0.14283496  0.00000000       0.021
  -0.01124534  0.11037247  0.00000000       0.021
  -0.05622668  0.04544749  0.00000000       0.021
  -0.06747202 -0.02596999  0.00000000       0.021
  -0.01124534 -0.07141748  0.00000000       0.021
  -0.03373601  0.03246249  0.00000000       0.021
  -0.04498135 -0.01298500  0.00000000       0.021
  -0.01124534 -0.04544749  0.00000000       0.021
  -0.01124534  0.01947749  0.00000000       0.021
  -0.01124534 -0.01947749  0.00000000       0.010
   0.03373601  0.01947749  0.00000000       0.021
  -0.03373601  0.01947749  0.00000000       0.010
   0.05622668  0.00649250  0.00000000       0.021
   0.02249067  0.05193999  0.00000000       0.021
  -0.03373601  0.04544749  0.00000000       0.021
   0.07871736 -0.00649250  0.00000000       0.021
   0.04498135  0.06492498  0.00000000       0.021
  -0.03373601  0.07141748  0.00000000       0.021
  -0.07871736  0.08440248  0.00000000       0.021
   0.06747202 -0.12984997  0.00000000       0.021
  -0.03373601  0.09738747  0.00000000       0.021
  -0.05622668  0.07141748  0.00000000       0.021
   0.08996269 -0.11686497  0.00000000       0.021
  -0.03373601  0.12335747  0.00000000       0.021
  -0.03373601  0.05843248  0.00000000       0.021
  -0.03373601 -0.05843248  0.00000000       0.010
   0.05622668  0.03246249  0.00000000       0.021
  -0.05622668  0.03246249  0.00000000       0.010
   0.07871736  0.01947749  0.00000000       0.021
   0.02249067  0.07790998  0.00000000       0.021
  -0.05622668  0.05843248  0.00000000       0.021
  -0.07871736  0.11037247  0.00000000       0.021
   0.04498135 -0.11686497  0.00000000       0.021
  -0.05622668  0.08440248  0.00000000       0.021
  -0.05622668  0.09738747  0.00000000       0.021
  -0.05622668  0.11037247  0.00000000       0.010
   0.07871736  0.04544749  0.00000000       0.021
  -0.07871736  0.04544749  0.00000000       0.010
  -0.07871736  0.13634246  0.00000000       0.021
  -0.07871736  0.07141748  0.00000000       0.010
 
 k-points in reciprocal lattice and weights: KPOINTS created by Atomic Simulation Env
   0.06250000  0.06250000  0.00000000       0.021
  -0.06250000  0.00000000  0.00000000       0.010
   0.18750000  0.06250000  0.00000000       0.021
   0.12500000  0.18750000  0.00000000       0.021
  -0.06250000  0.12500000  0.00000000       0.021
   0.31250000  0.06250000  0.00000000       0.021
   0.25000000  0.31250000  0.00000000       0.021
  -0.06250000  0.25000000  0.00000000       0.021
   0.43750000  0.06250000  0.00000000       0.021
   0.37500000  0.43750000  0.00000000       0.021
  -0.06250000  0.37500000  0.00000000       0.021
  -0.43750000  0.06250000  0.00000000       0.021
   0.50000000 -0.43750000  0.00000000       0.021
  -0.06250000  0.50000000  0.00000000       0.021
  -0.31250000  0.06250000  0.00000000       0.021
  -0.37500000 -0.31250000  0.00000000       0.021
  -0.06250000 -0.37500000  0.00000000       0.021
  -0.18750000  0.06250000  0.00000000       0.021
  -0.25000000 -0.18750000  0.00000000       0.021
  -0.06250000 -0.25000000  0.00000000       0.021
  -0.06250000  0.06250000  0.00000000       0.021
  -0.06250000 -0.12500000  0.00000000       0.010
   0.18750000  0.18750000  0.00000000       0.021
  -0.18750000  0.00000000  0.00000000       0.010
   0.31250000  0.18750000  0.00000000       0.021
   0.12500000  0.31250000  0.00000000       0.021
  -0.18750000  0.12500000  0.00000000       0.021
   0.43750000  0.18750000  0.00000000       0.021
   0.25000000  0.43750000  0.00000000       0.021
  -0.18750000  0.25000000  0.00000000       0.021
  -0.43750000  0.18750000  0.00000000       0.021
   0.37500000 -0.43750000  0.00000000       0.021
  -0.18750000  0.37500000  0.00000000       0.021
  -0.31250000  0.18750000  0.00000000       0.021
   0.50000000 -0.31250000  0.00000000       0.021
  -0.18750000  0.50000000  0.00000000       0.021
  -0.18750000  0.18750000  0.00000000       0.021
  -0.18750000 -0.37500000  0.00000000       0.010
   0.31250000  0.31250000  0.00000000       0.021
  -0.31250000  0.00000000  0.00000000       0.010
   0.43750000  0.31250000  0.00000000       0.021
   0.12500000  0.43750000  0.00000000       0.021
  -0.31250000  0.12500000  0.00000000       0.021
  -0.43750000  0.31250000  0.00000000       0.021
   0.25000000 -0.43750000  0.00000000       0.021
  -0.31250000  0.25000000  0.00000000       0.021
  -0.31250000  0.31250000  0.00000000       0.021
  -0.31250000  0.37500000  0.00000000       0.010
   0.43750000  0.43750000  0.00000000       0.021
  -0.43750000  0.00000000  0.00000000       0.010
  -0.43750000  0.43750000  0.00000000       0.021
  -0.43750000  0.12500000  0.00000000       0.010
 
 position of ions in fractional coordinates (direct lattice) 
   0.00000000  0.00000000  0.38952237
   0.50000000  0.00000000  0.38952237
   0.00000000  0.50000000  0.38952237
   0.50000000  0.50000000  0.38952237
   0.16666667  0.16666667  0.46468540
   0.66666667  0.16666667  0.46468540
   0.16666667  0.66666667  0.46468540
   0.66666667  0.66666667  0.46468540
   0.83333333  0.33333333  0.53920296
   0.33333333  0.33333333  0.53920296
   0.83333333  0.83333333  0.53920296
   0.00000000  0.00000000  0.61486043
   0.50000000  0.00000000  0.61486043
   0.00000000  0.50000000  0.61486043
   0.50000000  0.50000000  0.61486043
   0.33333333  0.83333333  0.53920296
 
 position of ions in cartesian coordinates  (Angst):
   0.00000000  0.00000000 12.00000000
   2.77892965  0.00000000 12.00000000
   1.38946483  2.40662367 12.00000000
   4.16839448  2.40662367 12.00000000
   1.38946483  0.80220789 14.31554441
   4.16839448  0.80220789 14.31554441
   2.77892965  3.20883156 14.31554441
   5.55785930  3.20883156 14.31554441
   5.55785930  1.60441578 16.61120399
   2.77892965  1.60441578 16.61120399
   6.94732413  4.01103945 16.61120399
   0.00000000  0.00000000 18.94198048
   2.77892965  0.00000000 18.94198048
   1.38946483  2.40662367 18.94198048
   4.16839448  2.40662367 18.94198048
   4.16839448  4.01103945 16.61120399
 


--------------------------------------------------------------------------------------------------------


 k-point  1 :   0.0625 0.0625 0.0000  plane waves:   12325
 k-point  2 :  -0.0625 0.0000 0.0000  plane waves:   12325
 k-point  3 :   0.1875 0.0625 0.0000  plane waves:   12294
 k-point  4 :   0.1250 0.1875 0.0000  plane waves:   12294
 k-point  5 :  -0.0625 0.1250 0.0000  plane waves:   12294
 k-point  6 :   0.3125 0.0625 0.0000  plane waves:   12263
 k-point  7 :   0.2500 0.3125 0.0000  plane waves:   12263
 k-point  8 :  -0.0625 0.2500 0.0000  plane waves:   12263
 k-point  9 :   0.4375 0.0625 0.0000  plane waves:   12221
 k-point 10 :   0.3750 0.4375 0.0000  plane waves:   12221
 k-point 11 :  -0.0625 0.3750 0.0000  plane waves:   12221
 k-point 12 :  -0.4375 0.0625 0.0000  plane waves:   12211
 k-point 13 :   0.5000-0.4375 0.0000  plane waves:   12211
 k-point 14 :  -0.0625 0.5000 0.0000  plane waves:   12211
 k-point 15 :  -0.3125 0.0625 0.0000  plane waves:   12242
 k-point 16 :  -0.3750-0.3125 0.0000  plane waves:   12242
 k-point 17 :  -0.0625-0.3750 0.0000  plane waves:   12242
 k-point 18 :  -0.1875 0.0625 0.0000  plane waves:   12280
 k-point 19 :  -0.2500-0.1875 0.0000  plane waves:   12280
 k-point 20 :  -0.0625-0.2500 0.0000  plane waves:   12280
 k-point 21 :  -0.0625 0.0625 0.0000  plane waves:   12329
 k-point 22 :  -0.0625-0.1250 0.0000  plane waves:   12329
 k-point 23 :   0.1875 0.1875 0.0000  plane waves:   12277
 k-point 24 :  -0.1875 0.0000 0.0000  plane waves:   12277
 k-point 25 :   0.3125 0.1875 0.0000  plane waves:   12288
 k-point 26 :   0.1250 0.3125 0.0000  plane waves:   12288
 k-point 27 :  -0.1875 0.1250 0.0000  plane waves:   12288
 k-point 28 :   0.4375 0.1875 0.0000  plane waves:   12234
 k-point 29 :   0.2500 0.4375 0.0000  plane waves:   12234
 k-point 30 :  -0.1875 0.2500 0.0000  plane waves:   12234
 k-point 31 :  -0.4375 0.1875 0.0000  plane waves:   12216
 k-point 32 :   0.3750-0.4375 0.0000  plane waves:   12216
 k-point 33 :  -0.1875 0.3750 0.0000  plane waves:   12216
 k-point 34 :  -0.3125 0.1875 0.0000  plane waves:   12215
 k-point 35 :   0.5000-0.3125 0.0000  plane waves:   12215
 k-point 36 :  -0.1875 0.5000 0.0000  plane waves:   12215
 k-point 37 :  -0.1875 0.1875 0.0000  plane waves:   12289
 k-point 38 :  -0.1875-0.3750 0.0000  plane waves:   12289
 k-point 39 :   0.3125 0.3125 0.0000  plane waves:   12275
 k-point 40 :  -0.3125 0.0000 0.0000  plane waves:   12275
 k-point 41 :   0.4375 0.3125 0.0000  plane waves:   12239
 k-point 42 :   0.1250 0.4375 0.0000  plane waves:   12239
 k-point 43 :  -0.3125 0.1250 0.0000  plane waves:   12239
 k-point 44 :  -0.4375 0.3125 0.0000  plane waves:   12235
 k-point 45 :   0.2500-0.4375 0.0000  plane waves:   12235
 k-point 46 :  -0.3125 0.2500 0.0000  plane waves:   12235
 k-point 47 :  -0.3125 0.3125 0.0000  plane waves:   12232
 k-point 48 :  -0.3125 0.3750 0.0000  plane waves:   12232
 k-point 49 :   0.4375 0.4375 0.0000  plane waves:   12200
 k-point 50 :  -0.4375 0.0000 0.0000  plane waves:   12200
 k-point 51 :  -0.4375 0.4375 0.0000  plane waves:   12214
 k-point 52 :  -0.4375 0.1250 0.0000  plane waves:   12214

 maximum and minimum number of plane-waves per node :     12329    12200

 maximum number of plane-waves:     12329
 maximum index in each direction: 
   IXMAX=    8   IYMAX=    8   IZMAX=   46
   IXMIN=   -8   IYMIN=   -8   IZMIN=  -46


 serial   3D FFT for wavefunctions
 parallel 3D FFT for charge:
    minimum data exchange during FFTs selected (reduces bandwidth)


 total amount of memory used by VASP MPI-rank0   362189. kBytes
=======================================================================

   base      :      30000. kBytes
   nonl-proj :     280273. kBytes
   fftplans  :       2015. kBytes
   grid      :       7641. kBytes
   one-center:        248. kBytes
   wavefun   :      42012. kBytes
 
     INWAV:  cpu time    0.0001: real time    0.0001
 Broyden mixing: mesh for mixing (old mesh)
   NGX = 17   NGY = 17   NGZ = 93
  (NGX  = 56   NGY  = 56   NGZ  =288)
  gives a total of  26877 points

 initial charge density was supplied:
 charge density of overlapping atoms calculated
 number of electron     160.0000000 magnetization 
 keeping initial charge density in first step


--------------------------------------------------------------------------------------------------------


 Maximum index for augmentation-charges          824 (set IRDMAX)


--------------------------------------------------------------------------------------------------------


 First call to EWALD:  gamma=   0.189
 Maximum number of real-space cells 5x 5x 1
 Maximum number of reciprocal cells 2x 2x 8

    FEWALD:  cpu time    0.0015: real time    0.0015


--------------------------------------- Iteration      1(   1)  ---------------------------------------


    POTLOK:  cpu time    0.0191: real time    0.0260
    SETDIJ:  cpu time    0.0022: real time    0.0023
     EDDAV:  cpu time    9.0739: real time    9.0774
       DOS:  cpu time    0.0015: real time    0.0015
    --------------------------------------------
      LOOP:  cpu time    9.0968: real time    9.1072

 eigenvalue-minimisations  :  9984
 total energy-change (2. order) : 0.9773148E+03  (-0.5547246E+04)
 number of electron     160.0000000 magnetization 
 augmentation part      160.0000000 magnetization 

 Free energy of the ion-electron system (eV)
  ---------------------------------------------------
  alpha Z        PSCENC =       303.52543553
  Ewald energy   TEWEN  =     98869.78256194
  -Hartree energ DENC   =   -110941.68405955
  -exchange      EXHF   =         0.00000000
  -V(xc)+E(xc)   XCENC  =        46.22674298
  PAW double counting   =     11171.21661038   -10711.84633960
  entropy T*S    EENTRO =        -0.00972283
  eigenvalues    EBANDS =       546.40935054
  atomic energy  EATOM  =     11693.69420960
  Solvation  Ediel_sol  =         0.00000000
  ---------------------------------------------------
  free energy    TOTEN  =       977.31478900 eV

  energy without entropy =      977.32451183  energy(sigma->0) =      977.31802994


--------------------------------------------------------------------------------------------------------




--------------------------------------- Iteration      1(   2)  ---------------------------------------


     EDDAV:  cpu time   12.7542: real time   12.7567
       DOS:  cpu time    0.0018: real time    0.0018
    --------------------------------------------
      LOOP:  cpu time   12.7560: real time   12.7585

 eigenvalue-minimisations  : 14424
 total energy-change (2. order) :-0.1014956E+04  (-0.9825594E+03)
 number of electron     160.0000000 magnetization 
 augmentation part      160.0000000 magnetization 

 Free energy of the ion-electron system (eV)
  ---------------------------------------------------
  alpha Z        PSCENC =       303.52543553
  Ewald energy   TEWEN  =     98869.78256194
  -Hartree energ DENC   =   -110941.68405955
  -exchange      EXHF   =         0.00000000
  -V(xc)+E(xc)   XCENC  =        46.22674298
  PAW double counting   =     11171.21661038   -10711.84633960
  entropy T*S    EENTRO =         0.00037804
  eigenvalues    EBANDS =      -468.55674464
  atomic energy  EATOM  =     11693.69420960
  Solvation  Ediel_sol  =         0.00000000
  ---------------------------------------------------
  free energy    TOTEN  =       -37.64120531 eV

  energy without entropy =      -37.64158335  energy(sigma->0) =      -37.64133133


--------------------------------------------------------------------------------------------------------




--------------------------------------- Iteration      1(   3)  ---------------------------------------


     EDDAV:  cpu time   11.1009: real time   11.1087
       DOS:  cpu time    0.0018: real time    0.0018
    --------------------------------------------
      LOOP:  cpu time   11.1027: real time   11.1104

 eigenvalue-minimisations  : 12432
 total energy-change (2. order) :-0.5904304E+02  (-0.5704675E+02)
 number of electron     160.0000000 magnetization 
 augmentation part      160.0000000 magnetization 

 Free energy of the ion-electron system (eV)
  ---------------------------------------------------
  alpha Z        PSCENC =       303.52543553
  Ewald energy   TEWEN  =     98869.78256194
  -Hartree energ DENC   =   -110941.68405955
  -exchange      EXHF   =         0.00000000
  -V(xc)+E(xc)   XCENC  =        46.22674298
  PAW double counting   =     11171.21661038   -10711.84633960
  entropy T*S    EENTRO =        -0.00705029
  eigenvalues    EBANDS =      -527.59235577
  atomic energy  EATOM  =     11693.69420960
  Solvation  Ediel_sol  =         0.00000000
  ---------------------------------------------------
  free energy    TOTEN  =       -96.68424477 eV

  energy without entropy =      -96.67719448  energy(sigma->0) =      -96.68189467


--------------------------------------------------------------------------------------------------------




--------------------------------------- Iteration      1(   4)  ---------------------------------------


     EDDAV:  cpu time   12.2378: real time   12.2389
       DOS:  cpu time    0.0016: real time    0.0016
    --------------------------------------------
      LOOP:  cpu time   12.2394: real time   12.2404

 eigenvalue-minimisations  : 13872
 total energy-change (2. order) :-0.1303178E+01  (-0.1293750E+01)
 number of electron     160.0000000 magnetization 
 augmentation part      160.0000000 magnetization 

 Free energy of the ion-electron system (eV)
  ---------------------------------------------------
  alpha Z        PSCENC =       303.52543553
  Ewald energy   TEWEN  =     98869.78256194
  -Hartree energ DENC   =   -110941.68405955
  -exchange      EXHF   =         0.00000000
  -V(xc)+E(xc)   XCENC  =        46.22674298
  PAW double counting   =     11171.21661038   -10711.84633960
  entropy T*S    EENTRO =        -0.00736973
  eigenvalues    EBANDS =      -528.89521470
  atomic energy  EATOM  =     11693.69420960
  Solvation  Ediel_sol  =         0.00000000
  ---------------------------------------------------
  free energy    TOTEN  =       -97.98742315 eV

  energy without entropy =      -97.98005342  energy(sigma->0) =      -97.98496658


--------------------------------------------------------------------------------------------------------




--------------------------------------- Iteration      1(   5)  ---------------------------------------


     EDDAV:  cpu time   13.3222: real time   13.3234
       DOS:  cpu time    0.0018: real time    0.0018
    CHARGE:  cpu time    0.3180: real time    0.3180
    MIXING:  cpu time    0.0010: real time    0.0011
    --------------------------------------------
      LOOP:  cpu time   13.6430: real time   13.6443

 eigenvalue-minimisations  : 15192
 total energy-change (2. order) :-0.3757994E-01  (-0.3756794E-01)
 number of electron     160.0000079 magnetization 
 augmentation part       46.9959214 magnetization 

 Broyden mixing:
  rms(total) = 0.41724E+01    rms(broyden)= 0.41723E+01
  rms(prec ) = 0.42036E+01
  weight for this iteration     100.00

 Free energy of the ion-electron system (eV)
  ---------------------------------------------------
  alpha Z        PSCENC =       303.52543553
  Ewald energy   TEWEN  =     98869.78256194
  -Hartree energ DENC   =   -110941.68405955
  -exchange      EXHF   =         0.00000000
  -V(xc)+E(xc)   XCENC  =        46.22674298
  PAW double counting   =     11171.21661038   -10711.84633960
  entropy T*S    EENTRO =        -0.00735862
  eigenvalues    EBANDS =      -528.93280575
  atomic energy  EATOM  =     11693.69420960
  Solvation  Ediel_sol  =         0.00000000
  ---------------------------------------------------
  free energy    TOTEN  =       -98.02500309 eV

  energy without entropy =      -98.01764447  energy(sigma->0) =      -98.02255022


--------------------------------------------------------------------------------------------------------




--------------------------------------- Iteration      1(   6)  ---------------------------------------


    POTLOK:  cpu time    0.0186: real time    0.0240
    SETDIJ:  cpu time    0.0021: real time    0.0021
     EDDAV:  cpu time   10.8043: real time   10.8050
       DOS:  cpu time    0.0019: real time    0.0019
    CHARGE:  cpu time    0.3182: real time    0.3182
    MIXING:  cpu time    0.0008: real time    0.0008
    --------------------------------------------
      LOOP:  cpu time   11.1459: real time   11.1520

 eigenvalue-minimisations  : 12192
 total energy-change (2. order) : 0.2735950E+01  (-0.3536221E+01)
 number of electron     160.0000070 magnetization 
 augmentation part       49.5379425 magnetization 

 Broyden mixing:
  rms(total) = 0.33609E+01    rms(broyden)= 0.33608E+01
  rms(prec ) = 0.36581E+01
  weight for this iteration     100.00

 eigenvalues of (default mixing * dielectric matrix)
  average eigenvalue GAMMA=   1.0244
  1.0244

 Free energy of the ion-electron system (eV)
  ---------------------------------------------------
  alpha Z        PSCENC =       303.52543553
  Ewald energy   TEWEN  =     98869.78256194
  -Hartree energ DENC   =   -110741.65741286
  -exchange      EXHF   =         0.00000000
  -V(xc)+E(xc)   XCENC  =        42.08710523
  PAW double counting   =     12325.10362152   -11888.90991448
  entropy T*S    EENTRO =         0.00392424
  eigenvalues    EBANDS =      -698.91858407
  atomic energy  EATOM  =     11693.69420960
  Solvation  Ediel_sol  =         0.00000000
  ---------------------------------------------------
  free energy    TOTEN  =       -95.28905336 eV

  energy without entropy =      -95.29297760  energy(sigma->0) =      -95.29036144


--------------------------------------------------------------------------------------------------------




--------------------------------------- Iteration      1(   7)  ---------------------------------------


    POTLOK:  cpu time    0.0166: real time    0.0176
    SETDIJ:  cpu time    0.0021: real time    0.0021
     EDDAV:  cpu time   13.0770: real time   13.0783
       DOS:  cpu time    0.0018: real time    0.0018
    CHARGE:  cpu time    0.3176: real time    0.3176
    MIXING:  cpu time    0.0006: real time    0.0006
    --------------------------------------------
      LOOP:  cpu time   13.4157: real time   13.4180

 eigenvalue-minimisations  : 15072
 total energy-change (2. order) :-0.5310508E+02  (-0.5472463E+02)
 number of electron     160.0000083 magnetization 
 augmentation part       47.6167726 magnetization 

 Broyden mixing:
  rms(total) = 0.59475E+01    rms(broyden)= 0.59474E+01
  rms(prec ) = 0.74710E+01
  weight for this iteration     100.00

 eigenvalues of (default mixing * dielectric matrix)
  average eigenvalue GAMMA=   0.9152
  1.6754  0.1550

 Free energy of the ion-electron system (eV)
  ---------------------------------------------------
  alpha Z        PSCENC =       303.52543553
  Ewald energy   TEWEN  =     98869.78256194
  -Hartree energ DENC   =   -110851.88458175
  -exchange      EXHF   =         0.00000000
  -V(xc)+E(xc)   XCENC  =        41.15376477
  PAW double counting   =     12915.72656407   -12486.68871025
  entropy T*S    EENTRO =        -0.01628159
  eigenvalues    EBANDS =      -633.68709123
  atomic energy  EATOM  =     11693.69420960
  Solvation  Ediel_sol  =         0.00000000
  ---------------------------------------------------
  free energy    TOTEN  =      -148.39412891 eV

  energy without entropy =     -148.37784733  energy(sigma->0) =     -148.38870172


--------------------------------------------------------------------------------------------------------




--------------------------------------- Iteration      1(   8)  ---------------------------------------


    POTLOK:  cpu time    0.0166: real time    0.0206
    SETDIJ:  cpu time    0.0021: real time    0.0021
     EDDAV:  cpu time   13.7636: real time   13.7648
       DOS:  cpu time    0.0018: real time    0.0018
    CHARGE:  cpu time    0.3181: real time    0.3181
    MIXING:  cpu time    0.0007: real time    0.0007
    --------------------------------------------
      LOOP:  cpu time   14.1028: real time   14.1081

 eigenvalue-minimisations  : 15720
 total energy-change (2. order) : 0.2619981E+02  (-0.2594930E+02)
 number of electron     160.0000098 magnetization 
 augmentation part       49.0246666 magnetization 

 Broyden mixing:
  rms(total) = 0.45170E+01    rms(broyden)= 0.45169E+01
  rms(prec ) = 0.50665E+01
  weight for this iteration     100.00

 eigenvalues of (default mixing * dielectric matrix)
  average eigenvalue GAMMA=   0.8571
  2.1389  0.2162  0.2162

 Free energy of the ion-electron system (eV)
  ---------------------------------------------------
  alpha Z        PSCENC =       303.52543553
  Ewald energy   TEWEN  =     98869.78256194
  -Hartree energ DENC   =   -110897.22903909
  -exchange      EXHF   =         0.00000000
  -V(xc)+E(xc)   XCENC  =        40.13933637
  PAW double counting   =     13643.29722391   -13223.97864141
  entropy T*S    EENTRO =        -0.00757058
  eigenvalues    EBANDS =      -551.41783275
  atomic energy  EATOM  =     11693.69420960
  Solvation  Ediel_sol  =         0.00000000
  ---------------------------------------------------
  free energy    TOTEN  =      -122.19431648 eV

  energy without entropy =     -122.18674590  energy(sigma->0) =     -122.19179295


--------------------------------------------------------------------------------------------------------




--------------------------------------- Iteration      1(   9)  ---------------------------------------


    POTLOK:  cpu time    0.0172: real time    0.0172
    SETDIJ:  cpu time    0.0022: real time    0.0022
     EDDAV:  cpu time   14.1338: real time   14.1355
       DOS:  cpu time    0.0018: real time    0.0018
    CHARGE:  cpu time    0.3181: real time    0.3181
    MIXING:  cpu time    0.0006: real time    0.0006
    --------------------------------------------
      LOOP:  cpu time   14.4738: real time   14.4755

 eigenvalue-minimisations  : 16272
 total energy-change (2. order) : 0.8172497E+01  (-0.1100352E+02)
 number of electron     160.0000088 magnetization 
 augmentation part       50.0362474 magnetization 

 Broyden mixing:
  rms(total) = 0.33591E+01    rms(broyden)= 0.33589E+01
  rms(prec ) = 0.45973E+01
  weight for this iteration     100.00

 eigenvalues of (default mixing * dielectric matrix)
  average eigenvalue GAMMA=   0.8375
  2.1378  0.7633  0.2937  0.1552

 Free energy of the ion-electron system (eV)
  ---------------------------------------------------
  alpha Z        PSCENC =       303.52543553
  Ewald energy   TEWEN  =     98869.78256194
  -Hartree energ DENC   =   -110722.54437758
  -exchange      EXHF   =         0.00000000
  -V(xc)+E(xc)   XCENC  =        39.46359735
  PAW double counting   =     14222.42977806   -13810.69041547
  entropy T*S    EENTRO =        -0.00796961
  eigenvalues    EBANDS =      -709.67463949
  atomic energy  EATOM  =     11693.69420960
  Solvation  Ediel_sol  =         0.00000000
  ---------------------------------------------------
  free energy    TOTEN  =      -114.02181967 eV

  energy without entropy =     -114.01385006  energy(sigma->0) =     -114.01916313


--------------------------------------------------------------------------------------------------------




--------------------------------------- Iteration      1(  10)  ---------------------------------------


    POTLOK:  cpu time    0.0175: real time    0.0175
    SETDIJ:  cpu time    0.0023: real time    0.0023
     EDDAV:  cpu time   12.8172: real time   12.8190
       DOS:  cpu time    0.0019: real time    0.0019
    CHARGE:  cpu time    0.3178: real time    0.3177
    MIXING:  cpu time    0.0007: real time    0.0007
    --------------------------------------------
      LOOP:  cpu time   13.1573: real time   13.1590

 eigenvalue-minimisations  : 14712
 total energy-change (2. order) : 0.1962632E+02  (-0.1418035E+02)
 number of electron     160.0000078 magnetization 
 augmentation part       50.4086635 magnetization 

 Broyden mixing:
  rms(total) = 0.16195E+01    rms(broyden)= 0.16193E+01
  rms(prec ) = 0.17332E+01
  weight for this iteration     100.00

 eigenvalues of (default mixing * dielectric matrix)
  average eigenvalue GAMMA=   0.7243
  2.1043  0.8020  0.2811  0.2811  0.1529

 Free energy of the ion-electron system (eV)
  ---------------------------------------------------
  alpha Z        PSCENC =       303.52543553
  Ewald energy   TEWEN  =     98869.78256194
  -Hartree energ DENC   =   -110745.55670217
  -exchange      EXHF   =         0.00000000
  -V(xc)+E(xc)   XCENC  =        40.33950237
  PAW double counting   =     14400.85747902   -13987.29174804
  entropy T*S    EENTRO =         0.00591633
  eigenvalues    EBANDS =      -669.75215089
  atomic energy  EATOM  =     11693.69420960
  Solvation  Ediel_sol  =         0.00000000
  ---------------------------------------------------
  free energy    TOTEN  =       -94.39549630 eV

  energy without entropy =      -94.40141264  energy(sigma->0) =      -94.39746842


--------------------------------------------------------------------------------------------------------




--------------------------------------- Iteration      1(  11)  ---------------------------------------


    POTLOK:  cpu time    0.0171: real time    0.0227
    SETDIJ:  cpu time    0.0021: real time    0.0021
     EDDAV:  cpu time   12.3868: real time   12.3879
       DOS:  cpu time    0.0018: real time    0.0018
    CHARGE:  cpu time    0.3181: real time    0.3181
    MIXING:  cpu time    0.0007: real time    0.0007
    --------------------------------------------
      LOOP:  cpu time   12.7266: real time   12.7334

 eigenvalue-minimisations  : 14232
 total energy-change (2. order) : 0.1715260E+01  (-0.2408041E+01)
 number of electron     160.0000078 magnetization 
 augmentation part       50.2241283 magnetization 

 Broyden mixing:
  rms(total) = 0.11370E+01    rms(broyden)= 0.11369E+01
  rms(prec ) = 0.14431E+01
  weight for this iteration     100.00

 eigenvalues of (default mixing * dielectric matrix)
  average eigenvalue GAMMA=   0.7169
  2.1240  0.8968  0.4476  0.4476  0.1592  0.2262

 Free energy of the ion-electron system (eV)
  ---------------------------------------------------
  alpha Z        PSCENC =       303.52543553
  Ewald energy   TEWEN  =     98869.78256194
  -Hartree energ DENC   =   -110746.56733895
  -exchange      EXHF   =         0.00000000
  -V(xc)+E(xc)   XCENC  =        40.32724988
  PAW double counting   =     14428.63437856   -14014.71234921
  entropy T*S    EENTRO =        -0.03619253
  eigenvalues    EBANDS =      -667.32819088
  atomic energy  EATOM  =     11693.69420960
  Solvation  Ediel_sol  =         0.00000000
  ---------------------------------------------------
  free energy    TOTEN  =       -92.68023607 eV

  energy without entropy =      -92.64404353  energy(sigma->0) =      -92.66817189


--------------------------------------------------------------------------------------------------------




--------------------------------------- Iteration      1(  12)  ---------------------------------------


    POTLOK:  cpu time    0.0165: real time    0.0165
    SETDIJ:  cpu time    0.0021: real time    0.0021
     EDDAV:  cpu time   13.4743: real time   13.4755
       DOS:  cpu time    0.0018: real time    0.0018
    CHARGE:  cpu time    0.3181: real time    0.3182
    MIXING:  cpu time    0.0008: real time    0.0008
    --------------------------------------------
      LOOP:  cpu time   13.8136: real time   13.8149

 eigenvalue-minimisations  : 15600
 total energy-change (2. order) : 0.6753855E+00  (-0.9656799E+00)
 number of electron     160.0000082 magnetization 
 augmentation part       50.1862335 magnetization 

 Broyden mixing:
  rms(total) = 0.56392E+00    rms(broyden)= 0.56386E+00
  rms(prec ) = 0.60609E+00
  weight for this iteration     100.00

 eigenvalues of (default mixing * dielectric matrix)
  average eigenvalue GAMMA=   0.6508
  2.0629  0.7149  0.7149  0.3399  0.3399  0.1589  0.2247

 Free energy of the ion-electron system (eV)
  ---------------------------------------------------
  alpha Z        PSCENC =       303.52543553
  Ewald energy   TEWEN  =     98869.78256194
  -Hartree energ DENC   =   -110750.70097355
  -exchange      EXHF   =         0.00000000
  -V(xc)+E(xc)   XCENC  =        40.25376008
  PAW double counting   =     14434.42788816   -14020.97203482
  entropy T*S    EENTRO =        -0.00998816
  eigenvalues    EBANDS =      -662.00570939
  atomic energy  EATOM  =     11693.69420960
  Solvation  Ediel_sol  =         0.00000000
  ---------------------------------------------------
  free energy    TOTEN  =       -92.00485061 eV

  energy without entropy =      -91.99486246  energy(sigma->0) =      -92.00152123


--------------------------------------------------------------------------------------------------------




--------------------------------------- Iteration      1(  13)  ---------------------------------------


    POTLOK:  cpu time    0.0170: real time    0.0210
    SETDIJ:  cpu time    0.0021: real time    0.0021
     EDDAV:  cpu time   12.0039: real time   12.0051
       DOS:  cpu time    0.0016: real time    0.0016
    CHARGE:  cpu time    0.3187: real time    0.3186
    MIXING:  cpu time    0.0009: real time    0.0009
    --------------------------------------------
      LOOP:  cpu time   12.3441: real time   12.3493

 eigenvalue-minimisations  : 13752
 total energy-change (2. order) : 0.1234536E+00  (-0.7679779E-01)
 number of electron     160.0000082 magnetization 
 augmentation part       50.1933186 magnetization 

 Broyden mixing:
  rms(total) = 0.44455E+00    rms(broyden)= 0.44453E+00
  rms(prec ) = 0.50462E+00
  weight for this iteration     100.00

 eigenvalues of (default mixing * dielectric matrix)
  average eigenvalue GAMMA=   0.6417
  2.0352  0.8110  0.8110  0.3750  0.3750  0.3502  0.1590  0.2167

 Free energy of the ion-electron system (eV)
  ---------------------------------------------------
  alpha Z        PSCENC =       303.52543553
  Ewald energy   TEWEN  =     98869.78256194
  -Hartree energ DENC   =   -110746.70793269
  -exchange      EXHF   =         0.00000000
  -V(xc)+E(xc)   XCENC  =        40.29244912
  PAW double counting   =     14380.18040021   -13966.35755255
  entropy T*S    EENTRO =        -0.01169234
  eigenvalues    EBANDS =      -666.27927579
  atomic energy  EATOM  =     11693.69420960
  Solvation  Ediel_sol  =         0.00000000
  ---------------------------------------------------
  free energy    TOTEN  =       -91.88139698 eV

  energy without entropy =      -91.86970463  energy(sigma->0) =      -91.87749953


--------------------------------------------------------------------------------------------------------




--------------------------------------- Iteration      1(  14)  ---------------------------------------


    POTLOK:  cpu time    0.0173: real time    0.0186
    SETDIJ:  cpu time    0.0021: real time    0.0021
     EDDAV:  cpu time   12.1260: real time   12.1272
       DOS:  cpu time    0.0018: real time    0.0018
    CHARGE:  cpu time    0.3179: real time    0.3179
    MIXING:  cpu time    0.0009: real time    0.0009
    --------------------------------------------
      LOOP:  cpu time   12.4660: real time   12.4685

 eigenvalue-minimisations  : 13848
 total energy-change (2. order) : 0.6342382E-01  (-0.1998133E-01)
 number of electron     160.0000081 magnetization 
 augmentation part       50.1939711 magnetization 

 Broyden mixing:
  rms(total) = 0.39065E+00    rms(broyden)= 0.39065E+00
  rms(prec ) = 0.41021E+00
  weight for this iteration     100.00

 eigenvalues of (default mixing * dielectric matrix)
  average eigenvalue GAMMA=   0.7689
  2.1600  1.2963  1.2963  0.5754  0.4472  0.4472  0.1589  0.3149  0.2237

 Free energy of the ion-electron system (eV)
  ---------------------------------------------------
  alpha Z        PSCENC =       303.52543553
  Ewald energy   TEWEN  =     98869.78256194
  -Hartree energ DENC   =   -110745.77719649
  -exchange      EXHF   =         0.00000000
  -V(xc)+E(xc)   XCENC  =        40.32357201
  PAW double counting   =     14344.06276141   -13930.00023155
  entropy T*S    EENTRO =        -0.01397861
  eigenvalues    EBANDS =      -667.41510701
  atomic energy  EATOM  =     11693.69420960
  Solvation  Ediel_sol  =         0.00000000
  ---------------------------------------------------
  free energy    TOTEN  =       -91.81797316 eV

  energy without entropy =      -91.80399455  energy(sigma->0) =      -91.81331362


--------------------------------------------------------------------------------------------------------




--------------------------------------- Iteration      1(  15)  ---------------------------------------


    POTLOK:  cpu time    0.0168: real time    0.0168
    SETDIJ:  cpu time    0.0023: real time    0.0023
     EDDAV:  cpu time   11.8144: real time   11.8153
       DOS:  cpu time    0.0018: real time    0.0018
    CHARGE:  cpu time    0.3181: real time    0.3182
    MIXING:  cpu time    0.0009: real time    0.0009
    --------------------------------------------
      LOOP:  cpu time   12.1543: real time   12.1553

 eigenvalue-minimisations  : 13536
 total energy-change (2. order) :-0.9665689E-02  (-0.8786654E-01)
 number of electron     160.0000079 magnetization 
 augmentation part       50.1838546 magnetization 

 Broyden mixing:
  rms(total) = 0.31317E+00    rms(broyden)= 0.31314E+00
  rms(prec ) = 0.39616E+00
  weight for this iteration     100.00

 eigenvalues of (default mixing * dielectric matrix)
  average eigenvalue GAMMA=   0.8073
  2.1905  1.5330  1.5330  0.7945  0.4517  0.4517  0.4089  0.1589  0.3289  0.2222

 Free energy of the ion-electron system (eV)
  ---------------------------------------------------
  alpha Z        PSCENC =       303.52543553
  Ewald energy   TEWEN  =     98869.78256194
  -Hartree energ DENC   =   -110750.77635979
  -exchange      EXHF   =         0.00000000
  -V(xc)+E(xc)   XCENC  =        40.41889814
  PAW double counting   =     14256.86438976   -13842.51012787
  entropy T*S    EENTRO =        -0.01641737
  eigenvalues    EBANDS =      -662.81022878
  atomic energy  EATOM  =     11693.69420960
  Solvation  Ediel_sol  =         0.00000000
  ---------------------------------------------------
  free energy    TOTEN  =       -91.82763885 eV

  energy without entropy =      -91.81122147  energy(sigma->0) =      -91.82216639


--------------------------------------------------------------------------------------------------------




--------------------------------------- Iteration      1(  16)  ---------------------------------------


    POTLOK:  cpu time    0.0173: real time    0.0240
    SETDIJ:  cpu time    0.0021: real time    0.0021
     EDDAV:  cpu time   11.0082: real time   11.0093
       DOS:  cpu time    0.0018: real time    0.0018
    CHARGE:  cpu time    0.3177: real time    0.3177
    MIXING:  cpu time    0.0011: real time    0.0011
    --------------------------------------------
      LOOP:  cpu time   11.3482: real time   11.3560

 eigenvalue-minimisations  : 12360
 total energy-change (2. order) : 0.5534847E-01  (-0.3383072E-01)
 number of electron     160.0000079 magnetization 
 augmentation part       50.1416503 magnetization 

 Broyden mixing:
  rms(total) = 0.10873E+00    rms(broyden)= 0.10872E+00
  rms(prec ) = 0.12589E+00
  weight for this iteration     100.00

 eigenvalues of (default mixing * dielectric matrix)
  average eigenvalue GAMMA=   0.7630
  1.9715  1.6301  1.6301  0.7242  0.4660  0.4660  0.1589  0.2224  0.4363  0.3907
  0.2973

 Free energy of the ion-electron system (eV)
  ---------------------------------------------------
  alpha Z        PSCENC =       303.52543553
  Ewald energy   TEWEN  =     98869.78256194
  -Hartree energ DENC   =   -110757.98292790
  -exchange      EXHF   =         0.00000000
  -V(xc)+E(xc)   XCENC  =        40.52866194
  PAW double counting   =     14185.22505993   -13770.39364425
  entropy T*S    EENTRO =        -0.01380366
  eigenvalues    EBANDS =      -656.13784352
  atomic energy  EATOM  =     11693.69420960
  Solvation  Ediel_sol  =         0.00000000
  ---------------------------------------------------
  free energy    TOTEN  =       -91.77229038 eV

  energy without entropy =      -91.75848672  energy(sigma->0) =      -91.76768916


--------------------------------------------------------------------------------------------------------




--------------------------------------- Iteration      1(  17)  ---------------------------------------


    POTLOK:  cpu time    0.0170: real time    0.0170
    SETDIJ:  cpu time    0.0021: real time    0.0021
     EDDAV:  cpu time   12.1928: real time   12.1938
       DOS:  cpu time    0.0018: real time    0.0018
    CHARGE:  cpu time    0.3177: real time    0.3177
    MIXING:  cpu time    0.0012: real time    0.0012
    --------------------------------------------
      LOOP:  cpu time   12.5325: real time   12.5335

 eigenvalue-minimisations  : 13872
 total energy-change (2. order) : 0.1056868E-01  (-0.4716446E-02)
 number of electron     160.0000080 magnetization 
 augmentation part       50.1235522 magnetization 

 Broyden mixing:
  rms(total) = 0.52503E-01    rms(broyden)= 0.52495E-01
  rms(prec ) = 0.55720E-01
  weight for this iteration     100.00

 eigenvalues of (default mixing * dielectric matrix)
  average eigenvalue GAMMA=   0.7617
  2.0501  1.5312  1.5312  0.8666  0.5886  0.5886  0.4653  0.4653  0.1589  0.2223
  0.3361  0.3361

 Free energy of the ion-electron system (eV)
  ---------------------------------------------------
  alpha Z        PSCENC =       303.52543553
  Ewald energy   TEWEN  =     98869.78256194
  -Hartree energ DENC   =   -110759.42912776
  -exchange      EXHF   =         0.00000000
  -V(xc)+E(xc)   XCENC  =        40.56189580
  PAW double counting   =     14175.52748710   -13760.52435108
  entropy T*S    EENTRO =        -0.01515104
  eigenvalues    EBANDS =      -654.88468179
  atomic energy  EATOM  =     11693.69420960
  Solvation  Ediel_sol  =         0.00000000
  ---------------------------------------------------
  free energy    TOTEN  =       -91.76172170 eV

  energy without entropy =      -91.74657066  energy(sigma->0) =      -91.75667135


--------------------------------------------------------------------------------------------------------




--------------------------------------- Iteration      1(  18)  ---------------------------------------


    POTLOK:  cpu time    0.0171: real time    0.0216
    SETDIJ:  cpu time    0.0021: real time    0.0021
     EDDAV:  cpu time   10.7701: real time   10.7711
       DOS:  cpu time    0.0018: real time    0.0018
    CHARGE:  cpu time    0.3181: real time    0.3181
    MIXING:  cpu time    0.0013: real time    0.0013
    --------------------------------------------
      LOOP:  cpu time   11.1104: real time   11.1160

 eigenvalue-minimisations  : 12240
 total energy-change (2. order) : 0.1694072E-02  (-0.1213280E-02)
 number of electron     160.0000080 magnetization 
 augmentation part       50.1132959 magnetization 

 Broyden mixing:
  rms(total) = 0.50885E-01    rms(broyden)= 0.50883E-01
  rms(prec ) = 0.57496E-01
  weight for this iteration     100.00

 eigenvalues of (default mixing * dielectric matrix)
  average eigenvalue GAMMA=   0.8094
  2.3292  1.6382  1.6382  0.9751  0.9751  0.6436  0.4547  0.4547  0.1589  0.2223
  0.3615  0.3615  0.3091

 Free energy of the ion-electron system (eV)
  ---------------------------------------------------
  alpha Z        PSCENC =       303.52543553
  Ewald energy   TEWEN  =     98869.78256194
  -Hartree energ DENC   =   -110761.31613560
  -exchange      EXHF   =         0.00000000
  -V(xc)+E(xc)   XCENC  =        40.57541795
  PAW double counting   =     14188.73668617   -13773.70316613
  entropy T*S    EENTRO =        -0.01346933
  eigenvalues    EBANDS =      -653.04156776
  atomic energy  EATOM  =     11693.69420960
  Solvation  Ediel_sol  =         0.00000000
  ---------------------------------------------------
  free energy    TOTEN  =       -91.76002763 eV

[...]
     80      -0.9335      1.50520
     81      -0.8313      0.67561
     82      -0.8070      0.49208
     83      -0.6873     -0.02807
     84      -0.6055     -0.06824
     85      -0.5125     -0.02968
     86      -0.3853     -0.00321
     87       1.0794     -0.00000
     88       1.1526     -0.00000
     89       1.2334     -0.00000
     90       1.7302     -0.00000
     91       1.7534     -0.00000
     92       1.8778     -0.00000
     93       2.7963     -0.00000
     94       2.9018     -0.00000
     95       3.2455     -0.00000
     96       4.3355     -0.00000

 k-point    51 :      -0.4375    0.4375    0.0000
  band No.  band energies     occupation 
      1      -8.3987      2.00000
      2      -8.3397      2.00000
      3      -7.3312      2.00000
      4      -7.3058      2.00000
      5      -6.9468      2.00000
      6      -6.6789      2.00000
      7      -6.5874      2.00000
      8      -6.5124      2.00000
      9      -6.4737      2.00000
     10      -6.3454      2.00000
     11      -6.3079      2.00000
     12      -6.2456      2.00000
     13      -6.1924      2.00000
     14      -6.0535      2.00000
     15      -5.8817      2.00000
     16      -5.8417      2.00000
     17      -5.7794      2.00000
     18      -5.7475      2.00000
     19      -5.5890      2.00000
     20      -5.5221      2.00000
     21      -5.4177      2.00000
     22      -5.3539      2.00000
     23      -5.2529      2.00000
     24      -5.1857      2.00000
     25      -5.1695      2.00000
     26      -5.1225      2.00000
     27      -5.0697      2.00000
     28      -5.0382      2.00000
     29      -4.7549      2.00000
     30      -4.6623      2.00000
     31      -4.6307      2.00000
     32      -4.5768      2.00000
     33      -4.5275      2.00000
     34      -4.4827      2.00000
     35      -4.3368      2.00000
     36      -4.3265      2.00000
     37      -4.1760      2.00000
     38      -4.1350      2.00000
     39      -4.1177      2.00000
     40      -4.0560      2.00000
     41      -3.9863      2.00000
     42      -3.8361      2.00000
     43      -3.7986      2.00000
     44      -3.7938      2.00000
     45      -3.7252      2.00000
     46      -3.7124      2.00000
     47      -3.6792      2.00000
     48      -3.6461      2.00000
     49      -3.5819      2.00000
     50      -3.4887      2.00000
     51      -3.4174      2.00000
     52      -3.3353      2.00000
     53      -3.2267      2.00000
     54      -3.1253      2.00000
     55      -2.9741      2.00000
     56      -2.9239      2.00000
     57      -2.8933      2.00000
     58      -2.8537      2.00000
     59      -2.7213      2.00000
     60      -2.6284      2.00000
     61      -2.4995      2.00000
     62      -2.4727      2.00000
     63      -2.3601      2.00000
     64      -2.2665      2.00000
     65      -2.2381      2.00000
     66      -2.1798      2.00000
     67      -2.0978      2.00000
     68      -2.0820      2.00000
     69      -1.9983      2.00000
     70      -1.9194      2.00000
     71      -1.8494      2.00000
     72      -1.7722      2.00000
     73      -1.7274      2.00000
     74      -1.6239      2.00000
     75      -1.4394      2.00043
     76      -1.3115      2.00779
     77      -1.2902      2.01147
     78      -1.1968      2.04321
     79      -1.0787      2.05781
     80      -1.0075      1.90926
     81      -0.9253      1.44578
     82      -0.8212      0.59698
     83      -0.7892      0.37172
     84      -0.6206     -0.07074
     85      -0.4845     -0.01993
     86      -0.4389     -0.00929
     87       0.1543     -0.00000
     88       0.5295     -0.00000
     89       1.4396     -0.00000
     90       1.4881     -0.00000
     91       1.6029     -0.00000
     92       2.2658     -0.00000
     93       3.1935     -0.00000
     94       3.3841     -0.00000
     95       3.9243     -0.00000
     96       3.9545     -0.00000

 k-point    52 :      -0.4375    0.1250    0.0000
  band No.  band energies     occupation 
      1      -8.4061      2.00000
      2      -8.3314      2.00000
      3      -7.3372      2.00000
      4      -7.3008      2.00000
      5      -6.9479      2.00000
      6      -6.6841      2.00000
      7      -6.5887      2.00000
      8      -6.5168      2.00000
      9      -6.4611      2.00000
     10      -6.3477      2.00000
     11      -6.3058      2.00000
     12      -6.2443      2.00000
     13      -6.1889      2.00000
     14      -6.0551      2.00000
     15      -5.8782      2.00000
     16      -5.8382      2.00000
     17      -5.7868      2.00000
     18      -5.7523      2.00000
     19      -5.5795      2.00000
     20      -5.5154      2.00000
     21      -5.4321      2.00000
     22      -5.3582      2.00000
     23      -5.2394      2.00000
     24      -5.1891      2.00000
     25      -5.1717      2.00000
     26      -5.1238      2.00000
     27      -5.0640      2.00000
     28      -5.0382      2.00000
     29      -4.7896      2.00000
     30      -4.6661      2.00000
     31      -4.6247      2.00000
     32      -4.5757      2.00000
     33      -4.5231      2.00000
     34      -4.4595      2.00000
     35      -4.3566      2.00000
     36      -4.3147      2.00000
     37      -4.1990      2.00000
     38      -4.1239      2.00000
     39      -4.1104      2.00000
     40      -4.0448      2.00000
     41      -3.9798      2.00000
     42      -3.8504      2.00000
     43      -3.8095      2.00000
     44      -3.7889      2.00000
     45      -3.7332      2.00000
     46      -3.6933      2.00000
     47      -3.6717      2.00000
     48      -3.6426      2.00000
     49      -3.5868      2.00000
     50      -3.4900      2.00000
     51      -3.3955      2.00000
     52      -3.3529      2.00000
     53      -3.2638      2.00000
     54      -3.0957      2.00000
     55      -2.9848      2.00000
     56      -2.9294      2.00000
     57      -2.8846      2.00000
     58      -2.8256      2.00000
     59      -2.7151      2.00000
     60      -2.6471      2.00000
     61      -2.4772      2.00000
     62      -2.4690      2.00000
     63      -2.3695      2.00000
     64      -2.3367      2.00000
     65      -2.2023      2.00000
     66      -2.1693      2.00000
     67      -2.1138      2.00000
     68      -2.0347      2.00000
     69      -1.9987      2.00000
     70      -1.9114      2.00000
     71      -1.8452      2.00000
     72      -1.7855      2.00000
     73      -1.7809      2.00000
     74      -1.6070      2.00000
     75      -1.4152      2.00080
     76      -1.3897      2.00149
     77      -1.2549      2.02037
     78      -1.1603      2.05967
     79      -1.0766      2.05607
     80      -1.0149      1.93484
     81      -0.9502      1.61962
     82      -0.8191      0.58081
     83      -0.7492      0.15446
     84      -0.6552     -0.06264
     85      -0.4982     -0.02438
     86      -0.4207     -0.00660
     87       0.1588     -0.00000
     88       0.5293     -0.00000
     89       1.4425     -0.00000
     90       1.5309     -0.00000
     91       1.5576     -0.00000
     92       2.2699     -0.00000
     93       3.1833     -0.00000
     94       3.3886     -0.00000
     95       3.9042     -0.00000
     96       3.9742     -0.00000


--------------------------------------------------------------------------------------------------------


 soft charge-density along one line, spin component           1
         0         1         2         3         4         5         6         7         8         9
 total charge-density along one line
 
 pseudopotential strength for first ion, spin component:           1
 -8.330   0.001   0.001  -0.014  -0.001  -8.540   0.001   0.001
  0.001  -8.260  -0.001  -0.004  -0.013   0.001  -8.471  -0.001
  0.001  -0.001  -8.258   0.002  -0.001   0.001  -0.001  -8.469
 -0.014  -0.004   0.002  -8.256   0.001  -0.013  -0.004   0.002
 -0.001  -0.013  -0.001   0.001  -8.331  -0.001  -0.013  -0.001
 -8.540   0.001   0.001  -0.013  -0.001  -8.735   0.001   0.001
  0.001  -8.471  -0.001  -0.004  -0.013   0.001  -8.667  -0.001
  0.001  -0.001  -8.469   0.002  -0.001   0.001  -0.001  -8.665
 -0.013  -0.004   0.002  -8.467   0.001  -0.013  -0.004   0.002
 -0.001  -0.013  -0.001   0.001  -8.540  -0.001  -0.013  -0.001
  0.001   0.000  -0.020  -0.001  -0.001   0.001   0.000  -0.020
  0.001   0.001  -0.031  -0.001  -0.001   0.001   0.001  -0.031
 -0.000  -0.007  -0.000  -0.000   0.000  -0.000  -0.007  -0.000
 -0.000   0.000  -0.014  -0.000   0.000  -0.000   0.000  -0.014
  0.000  -0.000   0.000  -0.007  -0.000   0.000  -0.000   0.000
 -0.000  -0.006  -0.000  -0.000   0.000  -0.000  -0.006  -0.000
 -0.000   0.000  -0.015  -0.000   0.000  -0.000   0.000  -0.015
  0.000  -0.000   0.000  -0.006  -0.000   0.000  -0.000   0.000
 total augmentation occupancy for first ion, spin component:           1
  2.639  -0.006  -0.009  -0.339  -0.012  -1.864   0.003   0.002   0.117   0.006  -0.002   0.001   0.001   0.000  -0.040  -0.000
 -0.006   3.302  -0.017  -0.057  -0.346   0.003  -1.821   0.008   0.033   0.127  -0.008   0.001  -0.230   0.000   0.002   0.008
 -0.009  -0.017   3.571   0.029   0.005   0.003   0.008  -2.311  -0.014  -0.002   0.661  -0.060  -0.001  -0.230   0.002   0.000
 -0.339  -0.057   0.029   3.368  -0.006   0.123   0.033  -0.014  -1.859   0.003   0.014  -0.001   0.002  -0.000  -0.232   0.000
 -0.012  -0.346   0.005  -0.006   2.625   0.006   0.121  -0.001   0.003  -1.858   0.001  -0.001  -0.039  -0.000   0.001   0.003
 -1.864   0.003   0.003   0.123   0.006   2.525  -0.002   0.001   0.029  -0.002  -0.000   0.001  -0.000   0.000   0.043  -0.000
  0.003  -1.821   0.008   0.033   0.121  -0.002   1.927  -0.004  -0.021   0.026   0.005  -0.000   0.226   0.000  -0.001  -0.016
  0.002   0.008  -2.311  -0.014  -0.001   0.001  -0.004   2.597   0.008  -0.000  -0.694   0.088   0.001   0.322  -0.001  -0.000
  0.117   0.033  -0.014  -1.859   0.003   0.029  -0.021   0.008   1.951  -0.002  -0.008   0.000  -0.001  -0.000   0.227  -0.000
  0.006   0.127  -0.002   0.003  -1.858  -0.002   0.026  -0.000  -0.002   2.522   0.000  -0.001   0.042  -0.000  -0.000  -0.003
 -0.002  -0.008   0.661   0.014   0.001  -0.000   0.005  -0.694  -0.008   0.000   2.089  -0.341  -0.000   0.173   0.000   0.000
  0.001   0.001  -0.060  -0.001  -0.001   0.001  -0.000   0.088   0.000  -0.001  -0.341   0.073  -0.000  -0.050   0.000  -0.000
  0.001  -0.230  -0.001   0.002  -0.039  -0.000   0.226   0.001  -0.001   0.042  -0.000  -0.000   0.265   0.000  -0.000  -0.014
  0.000   0.000  -0.230  -0.000  -0.000   0.000   0.000   0.322  -0.000  -0.000   0.173  -0.050   0.000   0.146  -0.000  -0.000
 -0.040   0.002   0.002  -0.232   0.001   0.043  -0.001  -0.001   0.227  -0.000   0.000   0.000  -0.000  -0.000   0.265   0.000
 -0.000   0.008   0.000   0.000   0.003  -0.000  -0.016  -0.000  -0.000  -0.003   0.000  -0.000  -0.014  -0.000   0.000   0.001
  0.000   0.000  -0.003  -0.000  -0.000  -0.000  -0.000  -0.019   0.000   0.000  -0.018   0.004  -0.000  -0.010   0.000   0.000
  0.003   0.000  -0.000   0.007  -0.000  -0.003  -0.000   0.000  -0.016  -0.000  -0.000   0.000   0.000   0.000  -0.014  -0.000


------------------------ aborting loop because EDIFF is reached ----------------------------------------



 DIPCOR: dipole corrections for dipol
 direction  3 min pos    12,
 dipolmoment           0.000000      0.000000      0.005898 electrons x Angstroem
 Tr[quadrupol]      -955.371630

 energy correction for charged system         0.000000 eV
 dipol+quadrupol energy correction            0.000004 eV
 added-field ion interaction          0.000000 eV  (added to PSCEN)

 
  *************** adding dipol energy to TOTEN NOW **************** 
    CHARGE:  cpu time    0.3173: real time    0.3173
    FORLOC:  cpu time    0.0023: real time    0.0023
    FORNL :  cpu time    4.5484: real time    4.5485
    STRESS:  cpu time    7.6140: real time    7.6143
    FORCOR:  cpu time    0.0182: real time    0.0182
    FORHAR:  cpu time    0.0056: real time    0.0057
    MIXING:  cpu time    0.0015: real time    0.0015
    OFIELD:  cpu time    0.0000: real time    0.0000

  FORCE on cell =-STRESS in cart. coord.  units (eV):
  Direction    XX          YY          ZZ          XY          YZ          ZX
  --------------------------------------------------------------------------------------
  Alpha Z   303.52544   303.52544   303.52544
  Ewald  107763.29605107763.34128************     0.03917     0.06566    -0.11373
  Hartree110071.73164110071.71885************    -0.01108     0.03617    -0.06265
  E(xc)    -709.65177  -709.63972  -714.51579     0.01052     0.00705    -0.01222
  Local  ************************223179.02276     0.11908     0.05894    -0.10218
  n-local    62.38392    55.51161    40.86193     2.01561    -0.49014    -0.08784
  augment   834.28844   834.22314   862.96478    -0.05812    -0.03880     0.06599
  Kinetic  2283.76830  2279.21922  2355.39859     1.15849    -0.40630    -0.02675
  Fock        0.00000     0.00000     0.00000     0.00000     0.00000     0.00000
  -------------------------------------------------------------------------------------
  Total     -11.12406   -11.11626     0.04237     0.00675    -0.04563     0.07904
  in kB     -21.62615   -21.61099     0.08237     0.01313    -0.08871     0.15365
  external pressure =      -14.38 kB  Pullay stress =        0.00 kB


 VOLUME and BASIS-vectors are now :
 -----------------------------------------------------------------------------
  energy-cutoff  :      350.00
  volume of cell :      824.13
      direct lattice vectors                 reciprocal lattice vectors
     5.557859300  0.000000000  0.000000000     0.179925390 -0.103879972  0.000000000
     2.778929650  4.813247345  0.000000000     0.000000000  0.207759944  0.000000000
     0.000000000  0.000000000 30.806959674     0.000000000  0.000000000  0.032460198

  length of vectors
     5.557859300  5.557859300 30.806959674     0.207759944  0.207759944  0.032460198


 FORCES acting on ions
    electron-ion (+dipol)            ewald-force                    non-local-force                 convergence-correction
 -----------------------------------------------------------------------------------------------
   0.233E+00 -.135E+00 0.257E+04   -.222E+00 0.128E+00 -.257E+04   0.141E-01 -.813E-02 -.208E+00   0.325E-02 -.188E-02 -.810E-01
   -.272E+00 -.191E+00 0.286E+04   0.247E+00 0.142E+00 -.285E+04   0.306E-03 0.623E-01 -.779E+00   -.361E-02 -.892E-03 -.880E-01
   -.394E-01 0.227E-01 0.285E+04   -.929E-12 -.576E-12 -.285E+04   0.569E-01 -.328E-01 -.669E+00   0.104E-02 -.600E-03 -.864E-01
   0.296E-01 0.331E+00 0.286E+04   -.958E-12 -.285E+00 -.285E+04   -.538E-01 -.314E-01 -.779E+00   -.103E-02 0.357E-02 -.880E-01
   0.472E+01 -.287E+01 0.101E+04   -.489E+01 0.297E+01 -.101E+04   0.107E-01 -.190E-01 -.228E+00   -.230E-01 -.279E-02 -.249E+00
   -.474E+01 0.274E+01 0.100E+04   0.489E+01 -.282E+01 -.100E+04   -.165E-01 0.953E-02 -.285E+00   0.229E-01 -.132E-01 -.240E+00
   0.484E+01 -.266E+01 0.101E+04   -.501E+01 0.275E+01 -.101E+04   0.218E-01 0.224E-03 -.228E+00   -.906E-02 0.213E-01 -.249E+00
   -.486E+01 0.280E+01 0.100E+04   0.501E+01 -.290E+01 -.100E+04   -.928E-02 0.536E-02 -.266E+00   0.902E-02 -.521E-02 -.227E+00
   0.314E-01 0.320E+00 -.926E+03   -.295E-11 -.285E+00 0.926E+03   -.528E-01 -.496E-01 0.424E+00   0.515E-02 0.363E-03 -.205E+00
   -.233E-01 0.134E-01 -.927E+03   -.291E-11 -.177E-11 0.927E+03   0.582E-01 -.336E-01 0.511E+00   -.516E-02 0.298E-02 -.205E+00
   -.261E+00 -.187E+00 -.926E+03   0.247E+00 0.142E+00 0.926E+03   0.166E-01 0.705E-01 0.424E+00   0.226E-02 -.464E-02 -.205E+00
   0.462E+01 -.267E+01 -.284E+04   -.479E+01 0.277E+01 0.284E+04   0.677E-01 -.391E-01 0.104E+01   -.187E-02 0.108E-02 -.305E-01
   -.461E+01 -.265E+01 -.284E+04   0.479E+01 0.277E+01 0.284E+04   -.794E-01 -.269E-01 0.105E+01   0.183E-02 -.702E-02 -.231E-01
   0.221E-01 -.128E-01 -.284E+04   0.117E-11 0.630E-12 0.283E+04   0.893E-02 -.516E-02 0.926E+00   -.707E-02 0.408E-02 -.241E-01
   -.125E-01 0.532E+01 -.284E+04   0.668E-12 -.553E+01 0.284E+04   -.164E-01 0.822E-01 0.105E+01   0.700E-02 0.192E-02 -.231E-01
   0.286E+00 -.165E+00 -.102E+04   -.271E+00 0.157E+00 0.102E+04   -.483E-02 0.279E-02 0.308E+00   -.246E-02 0.142E-02 -.232E+00
 -----------------------------------------------------------------------------------------------
   -.214E-01 0.124E-01 -.434E-01   -.722E-15 0.151E-13 -.261E-11   0.220E-01 -.127E-01 0.230E+01   -.761E-03 0.439E-03 -.226E+01
 
 
 POSITION                                       TOTAL-FORCE (eV/Angst)
 -----------------------------------------------------------------------------------
      0.00000      0.00000     12.00000         0.028497     -0.016453      1.118885
      2.77893      0.00000     12.00000        -0.028585      0.012610     -0.108106
      1.38946      2.40662     12.00000         0.018538     -0.010703     -0.397202
      4.16839      2.40662     12.00000        -0.025213      0.018451     -0.108106
      1.38946      0.80221     14.31554        -0.175436      0.079991     -0.412814
      4.16839      0.80221     14.31554         0.156197     -0.090181     -0.206104
      2.77893      3.20883     14.31554        -0.156992      0.111936     -0.412814
      5.55786      3.20883     14.31554         0.156867     -0.090567     -0.074361
      5.55786      1.60442     16.61120        -0.016282     -0.014103      0.073092
      2.77893      1.60442     16.61120         0.029763     -0.017184     -0.158559
      6.94732      4.01104     16.61120         0.004072      0.021152      0.073092
      0.00000      0.00000     18.94198        -0.106185      0.061306      0.151257
      2.77893      0.00000     18.94198         0.105294      0.086140      0.155055
      1.38946      2.40662     18.94198         0.024001     -0.013857     -0.061273
      4.16839      2.40662     18.94198        -0.021953     -0.134257      0.155055
      4.16839      4.01104     16.61120         0.007416     -0.004281      0.212904
 -----------------------------------------------------------------------------------
    total drift:                               -0.000125      0.000071     -0.000476


--------------------------------------------------------------------------------------------------------



  FREE ENERGIE OF THE ION-ELECTRON SYSTEM (eV)
  ---------------------------------------------------
  free  energy   TOTEN  =       -91.75713355 eV

  energy  without entropy=      -91.74339898  energy(sigma->0) =      -91.75255536
 


--------------------------------------------------------------------------------------------------------


    POTLOK:  cpu time    0.0195: real time    0.0195


--------------------------------------------------------------------------------------------------------


     LOOP+:  cpu time  302.0675: real time  302.1650
    4ORBIT:  cpu time    0.0000: real time    0.0000

 total amount of memory used by VASP MPI-rank0   362189. kBytes
=======================================================================

   base      :      30000. kBytes
   nonl-proj :     280273. kBytes
   fftplans  :       2015. kBytes
   grid      :       7641. kBytes
   one-center:        248. kBytes
   wavefun   :      42012. kBytes
 
  
  
 General timing and accounting informations for this job:
 ========================================================
  
                  Total CPU time used (sec):      307.649
                            User time (sec):      306.411
                          System time (sec):        1.238
                         Elapsed time (sec):      308.018
  
                   Maximum memory used (kb):      406232.
                   Average memory used (kb):           0.
  
                          Minor page faults:        75324
                          Major page faults:           36
                 Voluntary context switches:         1785
