   17   17    1    1
  0.4847811E+02  0.5557859E-09  0.5557859E-09  0.3080696E-08  0.5000000E-15
  1.000000000000000E-004
  CAR 
 unknown system                          
    161     20     96
 
  0.6250000E-01  0.6250000E-01  0.0000000E+00  0.3125000E-01
    1      -10.116966   1.000000
    2       -8.850913   1.000000
    3       -7.765946   1.000000
    4       -7.669134   1.000000
    5       -7.455147   1.000000
    6       -7.438430   1.000000
    7       -7.393059   1.000000
    8       -7.284452   1.000000
    9       -7.274856   1.000000
   10       -7.197682   1.000000
   11       -6.836513   1.000000
   12       -6.818156   1.000000
   13       -6.818031   1.000000
   14       -6.556880   1.000000
   15       -6.530325   1.000000
   16       -6.519403   1.000000
   17       -6.463366   1.000000
   18       -6.403783   1.000000
   19       -6.392446   1.000000
   20       -5.936182   1.000000
   21       -5.646401   1.000000
   22       -5.645563   1.000000
   23       -5.447379   1.000000
   24       -4.882102   1.000000
   25       -4.820792   1.000000
   26       -4.815973   1.000000
   27       -4.647950   1.000000
   28       -4.607782   1.000000
   29       -4.604804   1.000000
   30       -4.502964   1.000000
   31       -4.405571   1.000000
   32       -4.372679   1.000000
   33       -4.282522   1.000000
   34       -4.193712   1.000000
   35       -4.127852   1.000000
   36       -3.996839   1.000000
   37       -3.990801   1.000000
   38       -3.848331   1.000000
   39       -3.750483   1.000000
   40       -3.708829   1.000000
   41       -3.643679   1.000000
   42       -3.594077   1.000000
   43       -3.452763   1.000000
   44       -3.373419   1.000000
   45       -3.364444   1.000000
   46       -3.111765   1.000000
   47       -2.993698   1.000000
   48       -2.927555   1.000000
   49       -2.838233   1.000000
   50       -2.724496   1.000000
   51       -2.670141   1.000000
   52       -2.411772   1.000000
   53       -2.391573   1.000000
   54       -2.381522   1.000000
   55       -1.943830   1.000000
   56       -1.928372   1.000000
   57       -1.704722   1.000000
   58       -1.698268   1.000000
   59       -1.674258   1.000000
   60       -1.604669   1.000000
   61       -1.561252   1.000000
   62       -1.510244   1.000000
   63       -1.213868   1.002312
   64       -1.204990   1.002765
   65       -1.147278   1.007856
   66       -1.098953   1.015862
   67       -1.061515   1.024149
   68       -0.988548   1.035431
   69       -0.957945   1.030198
   70       -0.945779   1.024910
   71       -0.874923   0.938634
   72       -0.842469   0.859691
   73       -0.797613   0.709795
   74       -0.713370   0.363155
   75       -0.637756   0.107610
   76       -0.534053  -0.030335
   77       -0.513869  -0.034790
   78       -0.413605  -0.020188
   79       -0.329165  -0.006013
   80       -0.312285  -0.004451
   81       -0.242450  -0.001065
   82       -0.181547  -0.000242
   83       -0.178261  -0.000223
   84       -0.027423  -0.000002
   85        0.061479  -0.000000
   86        0.159786  -0.000000
   87        0.442991  -0.000000
   88        0.457199  -0.000000
   89        1.207085  -0.000000
   90        1.453362  -0.000000
   91        1.622001  -0.000000
   92        1.679923  -0.000000
   93        1.766679  -0.000000
   94        1.821740  -0.000000
   95        2.427194  -0.000000
   96        2.607412  -0.000000
 
  0.1875000E+00  0.6250000E-01  0.0000000E+00  0.6250000E-01
    1       -9.913938   1.000000
    2       -8.651353   1.000000
    3       -7.565906   1.000000
    4       -7.477553   1.000000
    5       -7.420883   1.000000
    6       -7.346426   1.000000
    7       -7.239728   1.000000
    8       -7.195468   1.000000
    9       -7.145189   1.000000
   10       -7.051792   1.000000
   11       -6.752694   1.000000
   12       -6.719531   1.000000
   13       -6.711449   1.000000
   14       -6.522694   1.000000
   15       -6.447889   1.000000
   16       -6.346017   1.000000
   17       -6.321003   1.000000
   18       -6.286099   1.000000
   19       -6.206930   1.000000
   20       -5.885271   1.000000
   21       -5.586404   1.000000
   22       -5.582810   1.000000
   23       -5.400452   1.000000
   24       -4.893419   1.000000
   25       -4.846611   1.000000
   26       -4.795000   1.000000
   27       -4.748030   1.000000
   28       -4.593990   1.000000
   29       -4.553611   1.000000
   30       -4.534776   1.000000
   31       -4.427871   1.000000
   32       -4.404329   1.000000
   33       -4.253055   1.000000
   34       -4.095289   1.000000
   35       -4.063658   1.000000
   36       -4.000825   1.000000
   37       -3.950111   1.000000
   38       -3.853756   1.000000
   39       -3.834808   1.000000
   40       -3.772474   1.000000
   41       -3.599530   1.000000
   42       -3.576298   1.000000
   43       -3.550004   1.000000
   44       -3.518538   1.000000
   45       -3.442441   1.000000
   46       -3.401145   1.000000
   47       -3.232551   1.000000
   48       -3.117536   1.000000
   49       -2.833610   1.000000
   50       -2.738413   1.000000
   51       -2.674513   1.000000
   52       -2.625830   1.000000
   53       -2.494768   1.000000
   54       -2.440645   1.000000
   55       -2.064538   1.000000
   56       -1.963739   1.000000
   57       -1.922573   1.000000
   58       -1.849751   1.000000
   59       -1.812216   1.000000
   60       -1.766724   1.000000
   61       -1.732807   1.000000
   62       -1.706806   1.000000
   63       -1.613289   1.000000
   64       -1.584355   1.000000
   65       -1.495903   1.000001
   66       -1.420398   1.000010
   67       -1.291007   1.000402
   68       -1.217510   1.002145
   69       -1.172376   1.005120
   70       -1.127407   1.010701
   71       -1.015582   1.033520
   72       -0.993275   1.035441
   73       -0.926765   1.011887
   74       -0.866841   0.921456
   75       -0.786714   0.667606
   76       -0.753254   0.529844
   77       -0.732724   0.443137
   78       -0.707325   0.338920
   79       -0.659976   0.170056
   80       -0.605515   0.038944
   81       -0.481709  -0.034175
   82       -0.425391  -0.022880
   83       -0.379754  -0.013224
   84       -0.321679  -0.005274
   85       -0.129523  -0.000058
   86        0.228051  -0.000000
   87        0.311513  -0.000000
   88        0.588490  -0.000000
   89        0.866900  -0.000000
   90        1.073753  -0.000000
   91        1.337931  -0.000000
   92        1.619383  -0.000000
   93        2.173561  -0.000000
   94        2.501218  -0.000000
   95        2.783653  -0.000000
   96        3.057038  -0.000000
 
  0.3125000E+00  0.6250000E-01  0.0000000E+00  0.6250000E-01
    1       -9.462609   1.000000
    2       -8.220878   1.000000
    3       -7.504694   1.000000
    4       -7.163318   1.000000
    5       -7.109738   1.000000
    6       -7.064119   1.000000
    7       -7.047264   1.000000
    8       -6.909218   1.000000
    9       -6.862703   1.000000
   10       -6.757076   1.000000
   11       -6.597916   1.000000
   12       -6.503033   1.000000
   13       -6.465407   1.000000
   14       -6.440573   1.000000
   15       -6.209256   1.000000
   16       -6.166651   1.000000
   17       -6.021160   1.000000
   18       -5.946537   1.000000
   19       -5.842425   1.000000
   20       -5.707073   1.000000
   21       -5.453927   1.000000
   22       -5.442258   1.000000
   23       -5.314245   1.000000
   24       -5.057953   1.000000
   25       -4.945063   1.000000
   26       -4.903411   1.000000
   27       -4.839935   1.000000
   28       -4.708973   1.000000
   29       -4.628320   1.000000
   30       -4.474804   1.000000
   31       -4.411919   1.000000
   32       -4.311671   1.000000
   33       -4.185506   1.000000
   34       -4.118341   1.000000
   35       -4.100084   1.000000
   36       -4.045480   1.000000
   37       -3.984112   1.000000
   38       -3.957061   1.000000
   39       -3.876348   1.000000
   40       -3.854020   1.000000
   41       -3.760462   1.000000
   42       -3.732605   1.000000
   43       -3.706062   1.000000
   44       -3.699477   1.000000
   45       -3.555411   1.000000
   46       -3.447171   1.000000
   47       -3.279526   1.000000
   48       -3.181998   1.000000
   49       -3.141436   1.000000
   50       -2.868057   1.000000
   51       -2.821551   1.000000
   52       -2.755232   1.000000
   53       -2.741621   1.000000
   54       -2.630141   1.000000
   55       -2.587230   1.000000
   56       -2.542083   1.000000
   57       -2.506333   1.000000
   58       -2.385739   1.000000
   59       -2.355917   1.000000
   60       -2.280745   1.000000
   61       -2.241067   1.000000
   62       -2.087816   1.000000
   63       -2.002916   1.000000
   64       -1.910001   1.000000
   65       -1.857590   1.000000
   66       -1.827030   1.000000
   67       -1.724507   1.000000
   68       -1.582061   1.000000
   69       -1.543228   1.000000
   70       -1.495669   1.000001
   71       -1.436376   1.000006
   72       -1.385418   1.000030
   73       -1.281813   1.000504
   74       -1.230844   1.001620
   75       -1.131909   1.010001
   76       -1.059434   1.024631
   77       -1.005390   1.034749
   78       -0.931724   1.015896
   79       -0.855833   0.895406
   80       -0.793606   0.694493
   81       -0.737356   0.462636
   82       -0.697610   0.300990
   83       -0.557876  -0.017957
   84       -0.507181  -0.035317
   85       -0.429308  -0.023786
   86       -0.028493  -0.000002
   87        0.342584  -0.000000
   88        0.571781  -0.000000
   89        1.033743  -0.000000
   90        1.455182  -0.000000
   91        1.739352  -0.000000
   92        1.977121  -0.000000
   93        2.361426  -0.000000
   94        2.448029  -0.000000
   95        3.196957  -0.000000
   96        3.579393  -0.000000
 
  0.4375000E+00  0.6250000E-01  0.0000000E+00  0.6250000E-01
    1       -8.828052   1.000000
    2       -7.850359   1.000000
    3       -7.670511   1.000000
    4       -7.115333   1.000000
    5       -6.795011   1.000000
    6       -6.714880   1.000000
    7       -6.635048   1.000000
    8       -6.553306   1.000000
    9       -6.492582   1.000000
   10       -6.453935   1.000000
   11       -6.441355   1.000000
   12       -6.276977   1.000000
   13       -6.148243   1.000000
   14       -6.066981   1.000000
   15       -6.023975   1.000000
   16       -5.969245   1.000000
   17       -5.842499   1.000000
   18       -5.629670   1.000000
   19       -5.474881   1.000000
   20       -5.471073   1.000000
   21       -5.314148   1.000000
   22       -5.279811   1.000000
   23       -5.196034   1.000000
   24       -5.166955   1.000000
   25       -5.095264   1.000000
   26       -4.986553   1.000000
   27       -4.927944   1.000000
   28       -4.847124   1.000000
   29       -4.682715   1.000000
   30       -4.589643   1.000000
   31       -4.540215   1.000000
   32       -4.513533   1.000000
   33       -4.359437   1.000000
   34       -4.312745   1.000000
   35       -4.285785   1.000000
   36       -4.181081   1.000000
   37       -4.082047   1.000000
   38       -4.034352   1.000000
   39       -3.917190   1.000000
   40       -3.848410   1.000000
   41       -3.799366   1.000000
   42       -3.744656   1.000000
   43       -3.660286   1.000000
   44       -3.631530   1.000000
   45       -3.578460   1.000000
   46       -3.519347   1.000000
   47       -3.465329   1.000000
   48       -3.363532   1.000000
   49       -3.350252   1.000000
   50       -3.328615   1.000000
   51       -3.282724   1.000000
   52       -3.219831   1.000000
   53       -3.158871   1.000000
   54       -3.058603   1.000000
   55       -2.979516   1.000000
   56       -2.848789   1.000000
   57       -2.838240   1.000000
   58       -2.754983   1.000000
   59       -2.660614   1.000000
   60       -2.587161   1.000000
   61       -2.373384   1.000000
   62       -2.346817   1.000000
   63       -2.313759   1.000000
   64       -2.267258   1.000000
   65       -2.226291   1.000000
   66       -2.157755   1.000000
   67       -2.031584   1.000000
   68       -1.970377   1.000000
   69       -1.896381   1.000000
   70       -1.849467   1.000000
   71       -1.807568   1.000000
   72       -1.781315   1.000000
   73       -1.530466   1.000000
   74       -1.448587   1.000004
   75       -1.336637   1.000122
   76       -1.264226   1.000767
   77       -1.209639   1.002519
   78       -1.046182   1.027655
   79       -0.972590   1.033958
   80       -0.895160   0.974554
   81       -0.797984   0.711197
   82       -0.710997   0.353586
   83       -0.684446   0.252008
   84       -0.506289  -0.035357
   85       -0.436462  -0.025440
   86       -0.296494  -0.003305
   87        0.624226  -0.000000
   88        0.716019  -0.000000
   89        1.192272  -0.000000
   90        1.600026  -0.000000
   91        1.824265  -0.000000
   92        2.123897  -0.000000
   93        2.528454  -0.000000
   94        2.642317  -0.000000
   95        3.466103  -0.000000
   96        3.823982  -0.000000
 
 -0.4375000E+00  0.6250000E-01  0.0000000E+00  0.6250000E-01
    1       -8.484165   1.000000
    2       -8.135231   1.000000
    3       -7.424220   1.000000
    4       -7.221164   1.000000
    5       -6.715022   1.000000
    6       -6.621438   1.000000
    7       -6.546850   1.000000
    8       -6.473710   1.000000
    9       -6.391681   1.000000
   10       -6.301555   1.000000
   11       -6.272014   1.000000
   12       -6.213252   1.000000
   13       -6.127843   1.000000
   14       -6.029068   1.000000
   15       -5.910034   1.000000
   16       -5.816585   1.000000
   17       -5.726887   1.000000
   18       -5.603985   1.000000
   19       -5.586562   1.000000
   20       -5.447248   1.000000
   21       -5.321260   1.000000
   22       -5.249637   1.000000
   23       -5.167726   1.000000
   24       -5.104984   1.000000
   25       -5.055449   1.000000
   26       -4.970567   1.000000
   27       -4.933881   1.000000
   28       -4.854296   1.000000
   29       -4.823843   1.000000
   30       -4.585445   1.000000
   31       -4.553923   1.000000
   32       -4.521259   1.000000
   33       -4.432549   1.000000
   34       -4.371934   1.000000
   35       -4.346978   1.000000
   36       -4.170691   1.000000
   37       -4.054643   1.000000
   38       -4.000599   1.000000
   39       -3.965602   1.000000
   40       -3.915900   1.000000
   41       -3.819062   1.000000
   42       -3.800199   1.000000
   43       -3.735288   1.000000
   44       -3.686659   1.000000
   45       -3.628429   1.000000
   46       -3.589723   1.000000
   47       -3.561244   1.000000
   48       -3.546725   1.000000
   49       -3.493073   1.000000
   50       -3.462302   1.000000
   51       -3.351127   1.000000
   52       -3.323158   1.000000
   53       -3.265473   1.000000
   54       -3.215030   1.000000
   55       -2.943534   1.000000
   56       -2.910413   1.000000
   57       -2.800176   1.000000
   58       -2.742847   1.000000
   59       -2.675564   1.000000
   60       -2.542873   1.000000
   61       -2.481262   1.000000
   62       -2.414019   1.000000
   63       -2.389646   1.000000
   64       -2.291092   1.000000
   65       -2.224576   1.000000
   66       -2.187203   1.000000
   67       -2.123436   1.000000
   68       -2.058407   1.000000
   69       -1.999870   1.000000
   70       -1.919086   1.000000
   71       -1.905749   1.000000
   72       -1.841759   1.000000
   73       -1.771326   1.000000
   74       -1.550030   1.000000
   75       -1.371922   1.000045
   76       -1.355248   1.000072
   77       -1.265042   1.000752
   78       -1.054137   1.025852
   79       -0.966309   1.032662
   80       -0.829617   0.821237
   81       -0.786227   0.665680
   82       -0.702202   0.318745
   83       -0.683964   0.250275
   84       -0.501495  -0.035458
   85       -0.441038  -0.026488
   86       -0.409424  -0.019256
   87        0.717145  -0.000000
   88        0.780575  -0.000000
   89        1.242343  -0.000000
   90        1.523191  -0.000000
   91        1.829488  -0.000000
   92        2.102407  -0.000000
   93        2.569281  -0.000000
   94        2.805356  -0.000000
   95        3.680022  -0.000000
   96        3.883274  -0.000000
 
 -0.3125000E+00  0.6250000E-01  0.0000000E+00  0.6250000E-01
    1       -9.161769   1.000000
    2       -7.949786   1.000000
    3       -7.634172   1.000000
    4       -7.086704   1.000000
    5       -6.933478   1.000000
    6       -6.897060   1.000000
    7       -6.801391   1.000000
    8       -6.740012   1.000000
    9       -6.674034   1.000000
   10       -6.605119   1.000000
   11       -6.540568   1.000000
   12       -6.384746   1.000000
   13       -6.315836   1.000000
   14       -6.251068   1.000000
   15       -6.101490   1.000000
   16       -6.069757   1.000000
   17       -5.913108   1.000000
   18       -5.755668   1.000000
   19       -5.643923   1.000000
   20       -5.538927   1.000000
   21       -5.372054   1.000000
   22       -5.330056   1.000000
   23       -5.283256   1.000000
   24       -5.156598   1.000000
   25       -5.044080   1.000000
   26       -4.961703   1.000000
   27       -4.896873   1.000000
   28       -4.783309   1.000000
   29       -4.622808   1.000000
   30       -4.507688   1.000000
   31       -4.453751   1.000000
   32       -4.399340   1.000000
   33       -4.260597   1.000000
   34       -4.192900   1.000000
   35       -4.167273   1.000000
   36       -4.103270   1.000000
   37       -4.089317   1.000000
   38       -4.071479   1.000000
   39       -3.928906   1.000000
   40       -3.851472   1.000000
   41       -3.790251   1.000000
   42       -3.737395   1.000000
   43       -3.695488   1.000000
   44       -3.609915   1.000000
   45       -3.551159   1.000000
   46       -3.517496   1.000000
   47       -3.368741   1.000000
   48       -3.193914   1.000000
   49       -3.122008   1.000000
   50       -3.044075   1.000000
   51       -3.013675   1.000000
   52       -2.982403   1.000000
   53       -2.935109   1.000000
   54       -2.882242   1.000000
   55       -2.832894   1.000000
   56       -2.785165   1.000000
   57       -2.729293   1.000000
   58       -2.676643   1.000000
   59       -2.647595   1.000000
   60       -2.503418   1.000000
   61       -2.444004   1.000000
   62       -2.189823   1.000000
   63       -2.150482   1.000000
   64       -2.091816   1.000000
   65       -2.059435   1.000000
   66       -2.007965   1.000000
   67       -1.883315   1.000000
   68       -1.868436   1.000000
   69       -1.773735   1.000000
   70       -1.700564   1.000000
   71       -1.648499   1.000000
   72       -1.529155   1.000000
   73       -1.420116   1.000010
   74       -1.324660   1.000168
   75       -1.245441   1.001178
   76       -1.158640   1.006505
   77       -1.045668   1.027769
   78       -0.998023   1.035284
   79       -0.966655   1.032745
   80       -0.933847   1.017476
   81       -0.785565   0.663059
   82       -0.714902   0.369366
   83       -0.675404   0.220242
   84       -0.512588  -0.034923
   85       -0.434864  -0.025071
   86       -0.132160  -0.000063
   87        0.439976  -0.000000
   88        0.655735  -0.000000
   89        1.122084  -0.000000
   90        1.608669  -0.000000
   91        1.806864  -0.000000
   92        2.178790  -0.000000
   93        2.339422  -0.000000
   94        2.497095  -0.000000
   95        3.319889  -0.000000
   96        3.729114  -0.000000
 
 -0.1875000E+00  0.6250000E-01  0.0000000E+00  0.6250000E-01
    1       -9.716508   1.000000
    2       -8.460388   1.000000
    3       -7.447819   1.000000
    4       -7.370101   1.000000
    5       -7.296241   1.000000
    6       -7.231821   1.000000
    7       -7.140307   1.000000
    8       -7.081945   1.000000
    9       -7.019925   1.000000
   10       -6.913376   1.000000
   11       -6.675371   1.000000
   12       -6.624227   1.000000
   13       -6.601222   1.000000
   14       -6.508656   1.000000
   15       -6.335533   1.000000
   16       -6.260215   1.000000
   17       -6.172598   1.000000
   18       -6.137788   1.000000
   19       -6.036916   1.000000
   20       -5.822109   1.000000
   21       -5.528899   1.000000
   22       -5.522501   1.000000
   23       -5.358933   1.000000
   24       -4.951622   1.000000
   25       -4.880332   1.000000
   26       -4.837319   1.000000
   27       -4.789521   1.000000
   28       -4.639070   1.000000
   29       -4.588515   1.000000
   30       -4.507126   1.000000
   31       -4.437580   1.000000
   32       -4.363383   1.000000
   33       -4.174052   1.000000
   34       -4.075860   1.000000
   35       -4.029128   1.000000
   36       -4.017912   1.000000
   37       -3.931478   1.000000
   38       -3.900392   1.000000
   39       -3.876587   1.000000
   40       -3.795493   1.000000
   41       -3.734108   1.000000
   42       -3.678974   1.000000
   43       -3.642351   1.000000
   44       -3.576873   1.000000
   45       -3.434555   1.000000
   46       -3.418101   1.000000
   47       -3.312259   1.000000
   48       -3.272579   1.000000
   49       -2.961569   1.000000
   50       -2.813348   1.000000
   51       -2.733702   1.000000
   52       -2.680114   1.000000
   53       -2.582096   1.000000
   54       -2.488896   1.000000
   55       -2.282326   1.000000
   56       -2.221203   1.000000
   57       -2.160409   1.000000
   58       -2.103999   1.000000
   59       -2.026077   1.000000
   60       -1.985387   1.000000
   61       -1.937611   1.000000
   62       -1.892579   1.000000
   63       -1.793915   1.000000
   64       -1.761124   1.000000
   65       -1.725844   1.000000
   66       -1.620051   1.000000
   67       -1.507739   1.000001
   68       -1.400274   1.000019
   69       -1.319641   1.000192
   70       -1.266661   1.000724
   71       -1.238887   1.001361
   72       -1.168831   1.005453
   73       -1.115413   1.012724
   74       -1.066067   1.023096
   75       -0.968682   1.033204
   76       -0.938421   1.020608
   77       -0.907158   0.991268
   78       -0.846452   0.870799
   79       -0.752810   0.527970
   80       -0.713158   0.362299
   81       -0.596115   0.023750
   82       -0.539641  -0.028203
   83       -0.479233  -0.033858
   84       -0.423946  -0.022546
   85       -0.262673  -0.001660
   86       -0.158657  -0.000132
   87        0.448269  -0.000000
   88        0.568301  -0.000000
   89        0.937826  -0.000000
   90        1.134175  -0.000000
   91        1.596450  -0.000000
   92        1.781594  -0.000000
   93        2.256683  -0.000000
   94        2.578680  -0.000000
   95        2.994286  -0.000000
   96        3.477448  -0.000000
 
 -0.6250000E-01  0.6250000E-01  0.0000000E+00  0.3125000E-01
    1      -10.048682   1.000000
    2       -8.783495   1.000000
    3       -7.697785   1.000000
    4       -7.604047   1.000000
    5       -7.434072   1.000000
    6       -7.410743   1.000000
    7       -7.344652   1.000000
    8       -7.252280   1.000000
    9       -7.230078   1.000000
   10       -7.150239   1.000000
   11       -6.808167   1.000000
   12       -6.784844   1.000000
   13       -6.782731   1.000000
   14       -6.535915   1.000000
   15       -6.516353   1.000000
   16       -6.450224   1.000000
   17       -6.414490   1.000000
   18       -6.368563   1.000000
   19       -6.329727   1.000000
   20       -5.920189   1.000000
   21       -5.626160   1.000000
   22       -5.624201   1.000000
   23       -5.431204   1.000000
   24       -4.882737   1.000000
   25       -4.825110   1.000000
   26       -4.805525   1.000000
   27       -4.683863   1.000000
   28       -4.599032   1.000000
   29       -4.585375   1.000000
   30       -4.508306   1.000000
   31       -4.419609   1.000000
   32       -4.348144   1.000000
   33       -4.330219   1.000000
   34       -4.157284   1.000000
   35       -4.091724   1.000000
   36       -3.997294   1.000000
   37       -3.978059   1.000000
   38       -3.845420   1.000000
   39       -3.786571   1.000000
   40       -3.693353   1.000000
   41       -3.663039   1.000000
   42       -3.548255   1.000000
   43       -3.492554   1.000000
   44       -3.444021   1.000000
   45       -3.414726   1.000000
   46       -3.232585   1.000000
   47       -3.074492   1.000000
   48       -3.009424   1.000000
   49       -2.823694   1.000000
   50       -2.716999   1.000000
   51       -2.629192   1.000000
   52       -2.515696   1.000000
   53       -2.428994   1.000000
   54       -2.408738   1.000000
   55       -1.970695   1.000000
   56       -1.919543   1.000000
   57       -1.756499   1.000000
   58       -1.730916   1.000000
   59       -1.711048   1.000000
   60       -1.682889   1.000000
   61       -1.616818   1.000000
   62       -1.579490   1.000000
   63       -1.389364   1.000027
   64       -1.326202   1.000162
   65       -1.264939   1.000754
   66       -1.191800   1.003576
   67       -1.138212   1.009076
   68       -1.108410   1.014010
   69       -1.046431   1.027599
   70       -1.014392   1.033689
   71       -0.926086   1.011302
   72       -0.873486   0.935701
   73       -0.781951   0.648643
   74       -0.742190   0.483053
   75       -0.677509   0.227490
   76       -0.648452   0.136160
   77       -0.600802   0.031063
   78       -0.543694  -0.026377
   79       -0.478911  -0.033814
   80       -0.459807  -0.030548
   81       -0.373822  -0.012169
   82       -0.326581  -0.005750
   83       -0.205591  -0.000446
   84       -0.112563  -0.000035
   85        0.126166  -0.000000
   86        0.185999  -0.000000
   87        0.246324  -0.000000
   88        0.840071  -0.000000
   89        0.911582  -0.000000
   90        1.014668  -0.000000
   91        1.373271  -0.000000
   92        1.570225  -0.000000
   93        2.025260  -0.000000
   94        2.220242  -0.000000
   95        2.513251  -0.000000
   96        2.743199  -0.000000
 
  0.1875000E+00  0.1875000E+00  0.0000000E+00  0.3125000E-01
    1       -9.847596   1.000000
    2       -8.586897   1.000000
    3       -7.506781   1.000000
    4       -7.447193   1.000000
    5       -7.413567   1.000000
    6       -7.246427   1.000000
    7       -7.230954   1.000000
    8       -7.179606   1.000000
    9       -7.084919   1.000000
   10       -7.009530   1.000000
   11       -6.726329   1.000000
   12       -6.684765   1.000000
   13       -6.678738   1.000000
   14       -6.540129   1.000000
   15       -6.353142   1.000000
   16       -6.320614   1.000000
   17       -6.312567   1.000000
   18       -6.210756   1.000000
   19       -6.159710   1.000000
   20       -5.865943   1.000000
   21       -5.568296   1.000000
   22       -5.561456   1.000000
   23       -5.386098   1.000000
   24       -4.904783   1.000000
   25       -4.846985   1.000000
   26       -4.818868   1.000000
   27       -4.767480   1.000000
   28       -4.606513   1.000000
   29       -4.542437   1.000000
   30       -4.535896   1.000000
   31       -4.449487   1.000000
   32       -4.387161   1.000000
   33       -4.217107   1.000000
   34       -4.071247   1.000000
   35       -4.066263   1.000000
   36       -4.006306   1.000000
   37       -3.938650   1.000000
   38       -3.875178   1.000000
   39       -3.820553   1.000000
   40       -3.806995   1.000000
   41       -3.643463   1.000000
   42       -3.600676   1.000000
   43       -3.580384   1.000000
   44       -3.514477   1.000000
   45       -3.450247   1.000000
   46       -3.402928   1.000000
   47       -3.334490   1.000000
   48       -3.149481   1.000000
   49       -2.826580   1.000000
   50       -2.814401   1.000000
   51       -2.691866   1.000000
   52       -2.644423   1.000000
   53       -2.517595   1.000000
   54       -2.465823   1.000000
   55       -2.110387   1.000000
   56       -2.043934   1.000000
   57       -1.970501   1.000000
   58       -1.938907   1.000000
   59       -1.917926   1.000000
   60       -1.852579   1.000000
   61       -1.833229   1.000000
   62       -1.702942   1.000000
   63       -1.673352   1.000000
   64       -1.645525   1.000000
   65       -1.596379   1.000000
   66       -1.498006   1.000001
   67       -1.298712   1.000331
   68       -1.291311   1.000399
   69       -1.237570   1.001401
   70       -1.172129   1.005143
   71       -1.105791   1.014509
   72       -1.044372   1.028056
   73       -1.028179   1.031404
   74       -0.910642   0.995519
   75       -0.889123   0.964879
   76       -0.838066   0.846961
   77       -0.794486   0.697875
   78       -0.743524   0.488694
   79       -0.685539   0.255958
   80       -0.642602   0.120194
   81       -0.512264  -0.034954
   82       -0.482514  -0.034271
   83       -0.402260  -0.017698
   84       -0.378602  -0.013015
   85       -0.280402  -0.002402
   86       -0.209798  -0.000494
   87        0.572666  -0.000000
   88        0.870549  -0.000000
   89        0.930491  -0.000000
   90        0.977837  -0.000000
   91        1.564506  -0.000000
   92        1.583620  -0.000000
   93        2.143180  -0.000000
   94        2.286947  -0.000000
   95        2.794218  -0.000000
   96        3.471385  -0.000000
 
  0.3125000E+00  0.1875000E+00  0.0000000E+00  0.6250000E-01
    1       -9.524072   1.000000
    2       -8.277080   1.000000
    3       -7.394677   1.000000
    4       -7.256308   1.000000
    5       -7.196173   1.000000
    6       -7.113590   1.000000
    7       -7.041917   1.000000
    8       -6.954689   1.000000
    9       -6.913087   1.000000
   10       -6.785785   1.000000
   11       -6.603435   1.000000
   12       -6.539619   1.000000
   13       -6.474815   1.000000
   14       -6.433868   1.000000
   15       -6.330532   1.000000
   16       -6.143184   1.000000
   17       -6.065874   1.000000
   18       -5.986346   1.000000
   19       -5.889236   1.000000
   20       -5.733837   1.000000