<?xml version="1.0" encoding="ISO-8859-1"?>
<modeling>
 <generator>
  <i name="program" type="string">vasp </i>
  <i name="version" type="string">5.4.4.18Apr17-6-g9f103f2a35  </i>
  <i name="subversion" type="string">(build Apr 28 2017 10:53:45) complex            parallel </i>
  <i name="platform" type="string">LinuxIFC </i>
  <i name="date" type="string">2020 02 16 </i>
  <i name="time" type="string">21:26:11 </i>
 </generator>
 <incar>
  <i type="string" name="PREC">normal</i>
  <i type="int" name="ISPIN">     1</i>
  <i type="int" name="IBRION">     2</i>
  <i name="EDIFF">      0.00001000</i>
  <i name="EDIFFG">     -0.05000000</i>
  <i type="int" name="NSW">     0</i>
  <i name="ENCUT">    350.00000000</i>
  <i type="logical" name="LWAVE"> F  </i>
  <i type="logical" name="LCHARG"> F  </i>
  <v type="int" name="KPOINT_BSE">    -1     0     0     0</v>
  <i type="string" name="GGA"> PE</i>
  <i type="int" name="IDIPOL">     3</i>
 </incar>
 <structure name="primitive_cell" >
  <crystal>
   <varray name="basis" >
    <v>       5.55785930       0.00000000       0.00000000 </v>
    <v>       2.77892965       4.81324734       0.00000000 </v>
    <v>       0.00000000       0.00000000      30.80695967 </v>
   </varray>
   <i name="volume">    824.12780743 </i>
   <varray name="rec_basis" >
    <v>       0.17992539      -0.10387997       0.00000000 </v>
    <v>       0.00000000       0.20775994       0.00000000 </v>
    <v>       0.00000000       0.00000000       0.03246020 </v>
   </varray>
  </crystal>
  <varray name="positions" >
   <v>       0.00000000       0.00000000       0.38952237 </v>
   <v>       0.00000000      -0.50000000       0.38952237 </v>
   <v>      -0.50000000      -0.50000000       0.38952237 </v>
   <v>      -0.50000000       0.00000000       0.38952237 </v>
   <v>       0.16652883       0.16652883       0.46542487 </v>
   <v>       0.16652883      -0.33305766       0.46542487 </v>
   <v>      -0.33305766       0.16652883       0.46542487 </v>
   <v>      -0.33333333      -0.33333333       0.46426737 </v>
   <v>      -0.16603131      -0.16603131      -0.45994801 </v>
   <v>      -0.16603131       0.33206261      -0.45994801 </v>
   <v>       0.33206261      -0.16603131      -0.45994801 </v>
   <v>       0.33333333       0.33333333      -0.46005508 </v>
   <v>       0.00000000       0.00000000      -0.38095648 </v>
   <v>      -0.49951272      -0.00097456      -0.38501086 </v>
   <v>      -0.00097456      -0.49951272      -0.38501086 </v>
   <v>      -0.49951272      -0.49951272      -0.38501086 </v>
   <v>       0.00000000       0.00000000      -0.33046564 </v>
  </varray>
 </structure>
 <varray name="primitive_index" >
  <v type="int" >        1 </v>
  <v type="int" >        3 </v>
  <v type="int" >        4 </v>
  <v type="int" >        2 </v>
  <v type="int" >        5 </v>
  <v type="int" >        7 </v>
  <v type="int" >        6 </v>
  <v type="int" >        8 </v>
  <v type="int" >       10 </v>
  <v type="int" >        9 </v>
  <v type="int" >       11 </v>
  <v type="int" >       16 </v>
  <v type="int" >       12 </v>
  <v type="int" >       13 </v>
  <v type="int" >       14 </v>
  <v type="int" >       15 </v>
  <v type="int" >       17 </v>
 </varray>
 <kpoints>
  <generation param="Monkhorst-Pack">
   <v type="int" name="divisions">       8        8        1 </v>
   <v name="usershift">      0.00000000       0.00000000       0.00000000 </v>
   <v name="genvec1">      0.12500000       0.00000000       0.00000000 </v>
   <v name="genvec2">      0.00000000       0.12500000       0.00000000 </v>
   <v name="genvec3">      0.00000000       0.00000000       1.00000000 </v>
   <v name="shift">      0.50000000       0.50000000       0.00000000 </v>
  </generation>
  <varray name="kpointlist" >
   <v>       0.06250000       0.06250000       0.00000000 </v>
   <v>       0.18750000       0.06250000       0.00000000 </v>
   <v>       0.31250000       0.06250000       0.00000000 </v>
   <v>       0.43750000       0.06250000       0.00000000 </v>
   <v>      -0.43750000       0.06250000       0.00000000 </v>
   <v>      -0.31250000       0.06250000       0.00000000 </v>
   <v>      -0.18750000       0.06250000       0.00000000 </v>
   <v>      -0.06250000       0.06250000       0.00000000 </v>
   <v>       0.18750000       0.18750000       0.00000000 </v>
   <v>       0.31250000       0.18750000       0.00000000 </v>
   <v>       0.43750000       0.18750000       0.00000000 </v>
   <v>      -0.43750000       0.18750000       0.00000000 </v>
   <v>      -0.31250000       0.18750000       0.00000000 </v>
   <v>      -0.18750000       0.18750000       0.00000000 </v>
   <v>       0.31250000       0.31250000       0.00000000 </v>
   <v>       0.43750000       0.31250000       0.00000000 </v>
   <v>      -0.43750000       0.31250000       0.00000000 </v>
   <v>      -0.31250000       0.31250000       0.00000000 </v>
   <v>       0.43750000       0.43750000       0.00000000 </v>
   <v>      -0.43750000       0.43750000       0.00000000 </v>
  </varray>
  <varray name="weights" >
   <v>       0.03125000 </v>
   <v>       0.06250000 </v>
   <v>       0.06250000 </v>
   <v>       0.06250000 </v>
   <v>       0.06250000 </v>
   <v>       0.06250000 </v>
   <v>       0.06250000 </v>
   <v>       0.03125000 </v>
   <v>       0.03125000 </v>
   <v>       0.06250000 </v>
   <v>       0.06250000 </v>
   <v>       0.06250000 </v>
   <v>       0.06250000 </v>
   <v>       0.03125000 </v>
   <v>       0.03125000 </v>
   <v>       0.06250000 </v>
   <v>       0.06250000 </v>
   <v>       0.03125000 </v>
   <v>       0.03125000 </v>
   <v>       0.03125000 </v>
  </varray>
 </kpoints>
 <parameters>
  <separator name="general" >
   <i type="string" name="SYSTEM">unknown system</i>
   <i type="logical" name="LCOMPAT"> F  </i>
  </separator>
  <separator name="electronic" >
   <i type="string" name="PREC">normal</i>
   <i name="ENMAX">    350.00000000</i>
   <i name="ENAUG">    400.00000000</i>
   <i name="EDIFF">      0.00001000</i>
   <i type="int" name="IALGO">    38</i>
   <i type="int" name="IWAVPR">    10</i>
   <i type="int" name="NBANDS">    96</i>
   <i name="NELECT">    161.00000000</i>
   <i type="int" name="TURBO">     0</i>
   <i type="int" name="IRESTART">     0</i>
   <i type="int" name="NREBOOT">     0</i>
   <i type="int" name="NMIN">     0</i>
   <i name="EREF">      0.00000000</i>
   <separator name="electronic smearing" >
    <i type="int" name="ISMEAR">     1</i>
    <i name="SIGMA">      0.20000000</i>
    <i name="KSPACING">      0.50000000</i>
    <i type="logical" name="KGAMMA"> T  </i>
   </separator>
   <separator name="electronic projectors" >
    <i type="logical" name="LREAL"> F  </i>
    <v name="ROPT">      0.00000000      0.00000000      0.00000000      0.00000000</v>
    <i type="int" name="LMAXPAW">  -100</i>
    <i type="int" name="LMAXMIX">     2</i>
    <i type="logical" name="NLSPLINE"> F  </i>
   </separator>
   <separator name="electronic startup" >
    <i type="int" name="ISTART">     0</i>
    <i type="int" name="ICHARG">     2</i>
    <i type="int" name="INIWAV">     1</i>
   </separator>
   <separator name="electronic spin" >
    <i type="int" name="ISPIN">     1</i>
    <i type="logical" name="LNONCOLLINEAR"> F  </i>
    <v name="MAGMOM">      1.00000000      1.00000000      1.00000000      1.00000000      1.00000000      1.00000000      1.00000000      1.00000000      1.00000000      1.00000000      1.00000000      1.00000000      1.00000000      1.00000000      1.00000000      1.00000000      1.00000000</v>
    <i name="NUPDOWN">     -1.00000000</i>
    <i type="logical" name="LSORBIT"> F  </i>
    <v name="SAXIS">      0.00000000      0.00000000      1.00000000</v>
    <i type="logical" name="LSPIRAL"> F  </i>
    <v name="QSPIRAL">      0.00000000      0.00000000      0.00000000</v>
    <i type="logical" name="LZEROZ"> F  </i>
   </separator>
   <separator name="electronic exchange-correlation" >
    <i type="logical" name="LASPH"> F  </i>
    <i type="logical" name="LMETAGGA"> F  </i>
   </separator>
   <separator name="electronic convergence" >
    <i type="int" name="NELM">    60</i>
    <i type="int" name="NELMDL">    -5</i>
    <i type="int" name="NELMIN">     2</i>
    <i name="ENINI">    350.00000000</i>
    <separator name="electronic convergence detail" >
     <i type="logical" name="LDIAG"> T  </i>
     <i type="logical" name="LSUBROT"> F  </i>
     <i name="WEIMIN">      0.00000000</i>
     <i name="EBREAK">      0.00000003</i>
     <i name="DEPER">      0.30000000</i>
     <i type="int" name="NRMM">     4</i>
     <i name="TIME">      0.40000000</i>
    </separator>
   </separator>
   <separator name="electronic mixer" >
    <i name="AMIX">      0.40000000</i>
    <i name="BMIX">      1.00000000</i>
    <i name="AMIN">      0.10000000</i>
    <i name="AMIX_MAG">      1.60000000</i>
    <i name="BMIX_MAG">      1.00000000</i>
    <separator name="electronic mixer details" >
     <i type="int" name="IMIX">     4</i>
     <i type="logical" name="MIXFIRST"> F  </i>
     <i type="int" name="MAXMIX">   -45</i>
     <i name="WC">    100.00000000</i>
     <i type="int" name="INIMIX">     1</i>
     <i type="int" name="MIXPRE">     1</i>
     <i type="int" name="MREMOVE">     5</i>
    </separator>
   </separator>
   <separator name="electronic dipolcorrection" >
    <i type="logical" name="LDIPOL"> F  </i>
    <i type="logical" name="LMONO"> F  </i>
    <i type="int" name="IDIPOL">     3</i>
    <i name="EPSILON">      1.00000000</i>
    <v name="DIPOL">   -100.00000000   -100.00000000   -100.00000000</v>
    <i name="EFIELD">      0.00000000</i>
   </separator>
  </separator>
  <separator name="grids" >
   <i type="int" name="NGX">    28</i>
   <i type="int" name="NGY">    28</i>
   <i type="int" name="NGZ">   144</i>
   <i type="int" name="NGXF">    56</i>
   <i type="int" name="NGYF">    56</i>
   <i type="int" name="NGZF">   288</i>
   <i type="logical" name="ADDGRID"> F  </i>
  </separator>
  <separator name="ionic" >
   <i type="int" name="NSW">     0</i>
   <i type="int" name="IBRION">    -1</i>
   <i type="int" name="MDALGO">     0</i>
   <i type="int" name="ISIF">     2</i>
   <i name="PSTRESS">      0.00000000</i>
   <i name="EDIFFG">     -0.05000000</i>
   <i type="int" name="NFREE">     1</i>
   <i name="POTIM">      0.50000000</i>
   <i name="SMASS">     -3.00000000</i>
   <i name="SCALEE">      1.00000000</i>
  </separator>
  <separator name="ionic md" >
   <i name="TEBEG">      0.00010000</i>
   <i name="TEEND">      0.00010000</i>
   <i type="int" name="NBLOCK">     1</i>
   <i type="int" name="KBLOCK">     1</i>
   <i type="int" name="NPACO">   256</i>
   <i name="APACO">     16.00000000</i>
  </separator>
  <separator name="symmetry" >
   <i type="int" name="ISYM">     2</i>
   <i name="SYMPREC">      0.00001000</i>
  </separator>
  <separator name="dos" >
   <i type="int" name="LORBIT">     0</i>
   <v name="RWIGS">     -1.00000000     -1.00000000     -1.00000000     -1.00000000</v>
   <i type="int" name="NEDOS">   301</i>
   <i name="EMIN">     10.00000000</i>
   <i name="EMAX">    -10.00000000</i>
   <i name="EFERMI">      0.00000000</i>
  </separator>
  <separator name="writing" >
   <i type="int" name="NWRITE">     2</i>
   <i type="logical" name="LWAVE"> F  </i>
   <i type="logical" name="LDOWNSAMPLE"> F  </i>
   <i type="logical" name="LCHARG"> F  </i>
   <i type="logical" name="LPARD"> F  </i>
   <i type="logical" name="LVTOT"> F  </i>
   <i type="logical" name="LVHAR"> F  </i>
   <i type="logical" name="LELF"> F  </i>
   <i type="logical" name="LOPTICS"> F  </i>
   <v name="STM">      0.00000000      0.00000000      0.00000000      0.00000000      0.00000000      0.00000000      0.00000000</v>
  </separator>
  <separator name="performance" >
   <i type="int" name="NPAR">    24</i>
   <i type="int" name="NSIM">     4</i>
   <i type="int" name="NBLK">    -1</i>
   <i type="logical" name="LPLANE"> T  </i>
   <i type="logical" name="LSCALAPACK"> T  </i>
   <i type="logical" name="LSCAAWARE"> F  </i>
   <i type="logical" name="LSCALU"> F  </i>
   <i type="logical" name="LASYNC"> F  </i>
   <i type="logical" name="LORBITALREAL"> F  </i>
  </separator>
  <separator name="miscellaneous" >
   <i type="int" name="IDIOT">     3</i>
   <i type="int" name="ISPECIAL">     0</i>
   <i type="logical" name="LMUSIC"> F  </i>
   <v name="POMASS">    192.22000000    195.08000000    196.96600000      1.00000000</v>
   <v name="DARWINR">      0.00000000      0.00000000      0.00000000      0.00000000</v>
   <v name="DARWINV">      1.00000000      1.00000000      1.00000000      1.00000000</v>
   <i type="logical" name="LCORR"> T  </i>
  </separator>
  <i type="logical" name="GGA_COMPAT"> T  </i>
  <i type="logical" name="LBERRY"> F  </i>
  <i type="int" name="ICORELEVEL">     0</i>
  <i type="logical" name="LDAU"> F  </i>
  <i type="int" name="I_CONSTRAINED_M">     0</i>
  <separator name="electronic exchange-correlation" >
   <i type="string" name="GGA">PE</i>
   <i type="int" name="VOSKOWN">     0</i>
   <i type="logical" name="LHFCALC"> F  </i>
   <i type="string" name="PRECFOCK"></i>
   <i type="logical" name="LSYMGRAD"> F  </i>
   <i type="logical" name="LHFONE"> F  </i>
   <i type="logical" name="LRHFCALC"> F  </i>
   <i type="logical" name="LTHOMAS"> F  </i>
   <i type="logical" name="LMODELHF"> F  </i>
   <i name="ENCUT4O">     -1.00000000</i>
   <i type="int" name="EXXOEP">     0</i>
   <i type="int" name="FOURORBIT">     0</i>
   <i name="AEXX">      0.00000000</i>
   <i name="HFALPHA">      0.00000000</i>
   <i name="MCALPHA">      0.00000000</i>
   <i name="ALDAX">      1.00000000</i>
   <i name="AGGAX">      1.00000000</i>
   <i name="ALDAC">      1.00000000</i>
   <i name="AGGAC">      1.00000000</i>
   <i type="int" name="NKREDX">     1</i>
   <i type="int" name="NKREDY">     1</i>
   <i type="int" name="NKREDZ">     1</i>
   <i type="logical" name="SHIFTRED"> F  </i>
   <i type="logical" name="ODDONLY"> F  </i>
   <i type="logical" name="EVENONLY"> F  </i>
   <i type="int" name="LMAXFOCK">     0</i>
   <i type="int" name="NMAXFOCKAE">     0</i>
   <i type="logical" name="LFOCKAEDFT"> F  </i>
   <i name="HFSCREEN">      0.00000000</i>
   <i name="HFSCREENC">      0.00000000</i>
   <i type="int" name="NBANDSGWLOW">     0</i>
  </separator>
  <separator name="vdW DFT" >
   <i type="logical" name="LUSE_VDW"> F  </i>
   <i name="Zab_VDW">     -0.84910000</i>
   <i name="PARAM1">      0.12340000</i>
   <i name="PARAM2">      1.00000000</i>
   <i name="PARAM3">      0.00000000</i>
  </separator>
  <separator name="model GW" >
   <i type="int" name="MODEL_GW">     0</i>
   <i name="MODEL_EPS0">     29.08686379</i>
   <i name="MODEL_ALPHA">      1.00000000</i>
  </separator>
  <separator name="linear response parameters" >
   <i type="logical" name="LEPSILON"> F  </i>
   <i type="logical" name="LRPA"> F  </i>
   <i type="logical" name="LNABLA"> F  </i>
   <i type="logical" name="LVEL"> F  </i>
   <i type="int" name="KINTER">     0</i>
   <i name="CSHIFT">      0.10000000</i>
   <i name="OMEGAMAX">     -1.00000000</i>
   <i name="DEG_THRESHOLD">      0.00200000</i>
   <i name="RTIME">     -0.10000000</i>
   <i name="WPLASMAI">      0.00000000</i>
   <v name="DFIELD">      0.00000000      0.00000000      0.00000000</v>
   <v name="WPLASMA">      0.00000000      0.00000000      0.00000000      0.00000000      0.00000000      0.00000000      0.00000000      0.00000000      0.00000000</v>
  </separator>
  <separator name="orbital magnetization" >
   <i type="logical" name="NUCIND"> F  </i>
   <v name="MAGPOS">      0.00000000      0.00000000      0.00000000</v>
   <i type="logical" name="LNICSALL"> T  </i>
   <i type="logical" name="ORBITALMAG"> F  </i>
   <i type="logical" name="LMAGBLOCH"> F  </i>
   <i type="logical" name="LCHIMAG"> F  </i>
   <i type="logical" name="LGAUGE"> T  </i>
   <i type="int" name="MAGATOM">     0</i>
   <v name="MAGDIPOL">      0.00000000      0.00000000      0.00000000</v>
   <v name="AVECCONST">      0.00000000      0.00000000      0.00000000</v>
  </separator>
  <separator name="response functions" >
   <i type="logical" name="LADDER"> F  </i>
   <i type="logical" name="LRPAFORCE"> F  </i>
   <i type="logical" name="LFXC"> F  </i>
   <i type="logical" name="LHARTREE"> T  </i>
   <i type="int" name="IBSE">     0</i>
   <v type="int" name="KPOINT">    -1     0     0     0</v>
   <i type="logical" name="LTCTE"> F  </i>
   <i type="logical" name="LTETE"> F  </i>
   <i type="logical" name="LTRIPLET"> F  </i>
   <i type="logical" name="LFXCEPS"> F  </i>
   <i type="logical" name="LFXHEG"> F  </i>
   <i type="int" name="NATURALO">     2</i>
   <i type="logical" name="L2ORDER"> F  </i>
   <i type="logical" name="LMP2LT"> F  </i>
   <i type="logical" name="LUSEW"> F  </i>
   <i name="ENCUTGW">     -2.00000000</i>
   <i name="ENCUTGWSOFT">     -2.00000000</i>
   <i name="ENCUTLF">     -1.00000000</i>
   <i type="int" name="LMAXMP2">    -1</i>
   <i name="SCISSOR">      0.00000000</i>
   <i type="int" name="NOMEGA">     0</i>
   <i type="int" name="NOMEGAR">     0</i>
   <i type="int" name="NBANDSGW">    -1</i>
   <i type="int" name="NBANDSO">    -1</i>
   <i type="int" name="NBANDSV">    -1</i>
   <i type="int" name="NELM">     1</i>
   <i type="int" name="NELMHF">     1</i>
   <i type="int" name="DIM">     3</i>
   <i type="int" name="ANTIRES">     0</i>
   <i name="OMEGAMAX">    -30.00000000</i>
   <i name="OMEGAMIN">    -30.00000000</i>
   <i name="OMEGATL">   -200.00000000</i>
   <i type="int" name="OMEGAGRID">   140</i>
   <i name="CSHIFT">     -0.10000000</i>
   <i type="logical" name="SELFENERGY"> F  </i>
   <i type="logical" name="LSPECTRAL"> F  </i>
   <i type="logical" name="LSPECTRALGW"> F  </i>
   <i type="logical" name="LSINGLES"> F  </i>
   <i type="logical" name="LFERMIGW"> F  </i>
   <i type="logical" name="ODDONLYGW"> F  </i>
   <i type="logical" name="EVENONLYGW"> F  </i>
   <i type="int" name="NKREDLFX">     1</i>
   <i type="int" name="NKREDLFY">     1</i>
   <i type="int" name="NKREDLFZ">     1</i>
   <i type="int" name="MAXMEM">  2800</i>
   <i type="int" name="TELESCOPE">     0</i>
   <i type="int" name="TAUPAR">     1</i>
   <i type="int" name="OMEGAPAR">    -1</i>
   <i name="LAMBDA">      1.00000000</i>
  </separator>
  <separator name="External order field" >
   <i name="OFIELD_KAPPA">      0.00000000</i>
   <v name="OFIELD_K">      0.00000000      0.00000000      0.00000000</v>
   <i name="OFIELD_Q6_NEAR">      0.00000000</i>
   <i name="OFIELD_Q6_FAR">      0.00000000</i>
   <i name="OFIELD_A">      0.00000000</i>
  </separator>
 </parameters>
 <atominfo>
  <atoms>      17 </atoms>
  <types>       4 </types>
  <array name="atoms" >
   <dimension dim="1">ion</dimension>
   <field type="string">element</field>
   <field type="int">atomtype</field>
   <set>
    <rc><c>Ir</c><c>   1</c></rc>
    <rc><c>Pt</c><c>   2</c></rc>
    <rc><c>Pt</c><c>   2</c></rc>
    <rc><c>Pt</c><c>   2</c></rc>
    <rc><c>Pt</c><c>   2</c></rc>
    <rc><c>Pt</c><c>   2</c></rc>
    <rc><c>Pt</c><c>   2</c></rc>
    <rc><c>Pt</c><c>   2</c></rc>
    <rc><c>Pt</c><c>   2</c></rc>
    <rc><c>Pt</c><c>   2</c></rc>
    <rc><c>Pt</c><c>   2</c></rc>
    <rc><c>Pt</c><c>   2</c></rc>
    <rc><c>Pt</c><c>   2</c></rc>
    <rc><c>Pt</c><c>   2</c></rc>
    <rc><c>Pt</c><c>   2</c></rc>
    <rc><c>Au</c><c>   3</c></rc>
    <rc><c>H </c><c>   4</c></rc>
   </set>
  </array>
  <array name="atomtypes" >
   <dimension dim="1">type</dimension>
   <field type="int">atomspertype</field>
   <field type="string">element</field>
   <field>mass</field>
   <field>valence</field>
   <field type="string">pseudopotential</field>
   <set>
    <rc><c>   1</c><c>Ir</c><c>    192.22000000</c><c>      9.00000000</c><c>  PAW_PBE Ir 06Sep2000                  </c></rc>
    <rc><c>  14</c><c>Pt</c><c>    195.08000000</c><c>     10.00000000</c><c>  PAW_PBE Pt 04Feb2005                  </c></rc>
    <rc><c>   1</c><c>Au</c><c>    196.96600000</c><c>     11.00000000</c><c>  PAW_PBE Au 04Oct2007                  </c></rc>
    <rc><c>   1</c><c>H </c><c>      1.00000000</c><c>      1.00000000</c><c>  PAW_PBE H 15Jun2001                   </c></rc>
   </set>
  </array>
 </atominfo>
 <structure name="initialpos" >
  <crystal>
   <varray name="basis" >
    <v>       5.55785930       0.00000000       0.00000000 </v>
    <v>       2.77892965       4.81324734       0.00000000 </v>
    <v>       0.00000000       0.00000000      30.80695967 </v>
   </varray>
   <i name="volume">    824.12780743 </i>
   <varray name="rec_basis" >
    <v>       0.17992539      -0.10387997       0.00000000 </v>
    <v>       0.00000000       0.20775994       0.00000000 </v>
    <v>       0.00000000       0.00000000       0.03246020 </v>
   </varray>
  </crystal>
  <varray name="positions" >
   <v>       0.00000000       0.00000000       0.38952237 </v>
   <v>       0.50000000       0.00000000       0.38952237 </v>
   <v>       0.00000000       0.50000000       0.38952237 </v>
   <v>       0.50000000       0.50000000       0.38952237 </v>
   <v>       0.16652883       0.16652883       0.46542487 </v>
   <v>       0.66694234       0.16652883       0.46542487 </v>
   <v>       0.16652883       0.66694234       0.46542487 </v>
   <v>       0.66666667       0.66666667       0.46426737 </v>
   <v>       0.83396869       0.33206261       0.54005199 </v>
   <v>       0.83396869       0.83396869       0.54005199 </v>
   <v>       0.33206261       0.83396869       0.54005199 </v>
   <v>       0.00000000       0.00000000       0.61904352 </v>
   <v>       0.50048728       0.99902544       0.61498914 </v>
   <v>       0.99902544       0.50048728       0.61498914 </v>
   <v>       0.50048728       0.50048728       0.61498914 </v>
   <v>       0.33333333       0.33333333       0.53994492 </v>
   <v>       0.00000000       0.00000000       0.66953436 </v>
  </varray>
  <varray name="selective"  type="logical" >
   <v type="logical" >  F  F  F </v>
   <v type="logical" >  F  F  F </v>
   <v type="logical" >  F  F  F </v>
   <v type="logical" >  F  F  F </v>
   <v type="logical" >  T  T  T </v>
   <v type="logical" >  T  T  T </v>
   <v type="logical" >  T  T  T </v>
   <v type="logical" >  T  T  T </v>
   <v type="logical" >  T  T  T </v>
   <v type="logical" >  T  T  T </v>
   <v type="logical" >  T  T  T </v>
   <v type="logical" >  T  T  T </v>
   <v type="logical" >  T  T  T </v>
   <v type="logical" >  T  T  T </v>
   <v type="logical" >  T  T  T </v>
   <v type="logical" >  T  T  T </v>
   <v type="logical" >  T  T  T </v>
  </varray>
  <nose>
   <v>      -3.00000000       0.00000000       0.00010000       0.00010000 </v>
  </nose>
 </structure>
 <calculation>
  <scstep>
   <time name="dav">    3.51    3.51</time>
   <time name="total">    3.53    3.54</time>
   <energy>
    <i name="alphaZ">    305.89839443 </i>
    <i name="ewald">  99027.89845496 </i>
    <i name="hartreedc">-111115.65487097 </i>
    <i name="XCdc">     48.74479440 </i>
    <i name="pawpsdc">  11173.35063782 </i>
    <i name="pawaedc"> -10713.98924482 </i>
    <i name="eentropy">      0.00289147 </i>
    <i name="bandstr">    549.72265783 </i>
    <i name="atom">  11706.16234457 </i>
    <i name="e_fr_energy">    982.13605968 </i>
    <i name="e_wo_entrp">    982.13316821 </i>
    <i name="e_0_energy">    982.13509585 </i>
   </energy>
  </scstep>
  <scstep>
   <time name="dav">    5.09    5.10</time>
   <time name="total">    5.10    5.10</time>
   <energy>
    <i name="e_fr_energy">    -43.42931412 </i>
    <i name="e_wo_entrp">    -43.42441295 </i>
    <i name="e_0_energy">    -43.42768040 </i>
   </energy>
  </scstep>
  <scstep>
   <time name="dav">    4.35    4.35</time>
   <time name="total">    4.35    4.36</time>
   <energy>
    <i name="e_fr_energy">   -100.94432361 </i>
    <i name="e_wo_entrp">   -100.91800337 </i>
    <i name="e_0_energy">   -100.93555019 </i>
   </energy>
  </scstep>
  <scstep>
   <time name="dav">    4.94    4.94</time>
   <time name="total">    4.94    4.94</time>
   <energy>
    <i name="e_fr_energy">   -102.18378291 </i>
    <i name="e_wo_entrp">   -102.15541961 </i>
    <i name="e_0_energy">   -102.17432848 </i>
   </energy>
  </scstep>
  <scstep>
   <time name="dav">    5.18    5.19</time>
   <time name="total">    5.32    5.32</time>
   <energy>
    <i name="e_fr_energy">   -102.21133491 </i>
    <i name="e_wo_entrp">   -102.18297062 </i>
    <i name="e_0_energy">   -102.20188015 </i>
   </energy>
  </scstep>
  <scstep>
   <time name="dav">    4.34    4.34</time>
   <time name="total">    4.50    4.50</time>
   <energy>
    <i name="e_fr_energy">    -98.11678866 </i>
    <i name="e_wo_entrp">    -98.07808877 </i>
    <i name="e_0_energy">    -98.10388870 </i>
   </energy>
  </scstep>
  <scstep>
   <time name="dav">    4.87    4.87</time>
   <time name="total">    5.03    5.03</time>
   <energy>
    <i name="e_fr_energy">   -130.67926908 </i>
    <i name="e_wo_entrp">   -130.67891008 </i>
    <i name="e_0_energy">   -130.67914941 </i>
   </energy>
  </scstep>
  <scstep>
   <time name="dav">    4.93    4.93</time>
   <time name="total">    5.09    5.09</time>
   <energy>
    <i name="e_fr_energy">   -114.49901882 </i>
    <i name="e_wo_entrp">   -114.48280079 </i>
    <i name="e_0_energy">   -114.49361281 </i>
   </energy>
  </scstep>
  <scstep>
   <time name="dav">    4.96    4.96</time>
   <time name="total">    5.11    5.11</time>
   <energy>
    <i name="e_fr_energy">   -105.93686903 </i>
    <i name="e_wo_entrp">   -105.92245302 </i>
    <i name="e_0_energy">   -105.93206369 </i>
   </energy>
  </scstep>
  <scstep>
   <time name="dav">    4.58    4.58</time>
   <time name="total">    4.74    4.74</time>
   <energy>
    <i name="e_fr_energy">   -101.93115085 </i>
    <i name="e_wo_entrp">   -101.89490750 </i>
    <i name="e_0_energy">   -101.91906973 </i>
   </energy>
  </scstep>
  <scstep>
   <time name="dav">    5.12    5.12</time>
   <time name="total">    5.27    5.27</time>
   <energy>
    <i name="e_fr_energy">    -96.04549334 </i>
    <i name="e_wo_entrp">    -96.04090431 </i>
    <i name="e_0_energy">    -96.04396366 </i>
   </energy>
  </scstep>
  <scstep>
   <time name="dav">    5.11    5.11</time>
   <time name="total">    5.26    5.26</time>
   <energy>
    <i name="e_fr_energy">    -96.24706229 </i>
    <i name="e_wo_entrp">    -96.22790584 </i>
    <i name="e_0_energy">    -96.24067680 </i>
   </energy>
  </scstep>
  <scstep>
   <time name="dav">    4.84    4.84</time>
   <time name="total">    4.99    5.00</time>
   <energy>
    <i name="e_fr_energy">    -95.54528875 </i>
    <i name="e_wo_entrp">    -95.51689927 </i>
    <i name="e_0_energy">    -95.53582559 </i>
   </energy>
  </scstep>
  <scstep>
   <time name="dav">    4.09    4.09</time>
   <time name="total">    4.24    4.24</time>
   <energy>
    <i name="e_fr_energy">    -95.56653960 </i>
    <i name="e_wo_entrp">    -95.54617610 </i>
    <i name="e_0_energy">    -95.55975177 </i>
   </energy>
  </scstep>
  <scstep>
   <time name="dav">    4.52    4.52</time>
   <time name="total">    4.67    4.67</time>
   <energy>
    <i name="e_fr_energy">    -95.50583410 </i>
    <i name="e_wo_entrp">    -95.47974420 </i>
    <i name="e_0_energy">    -95.49713747 </i>
   </energy>
  </scstep>
  <scstep>
   <time name="dav">    4.16    4.16</time>
   <time name="total">    4.32    4.32</time>
   <energy>
    <i name="e_fr_energy">    -95.50235908 </i>
    <i name="e_wo_entrp">    -95.47718403 </i>
    <i name="e_0_energy">    -95.49396740 </i>
   </energy>
  </scstep>
  <scstep>
   <time name="dav">    5.01    5.01</time>
   <time name="total">    5.16    5.16</time>
   <energy>
    <i name="e_fr_energy">    -95.50503968 </i>
    <i name="e_wo_entrp">    -95.48021289 </i>
    <i name="e_0_energy">    -95.49676409 </i>
   </energy>
  </scstep>
  <scstep>
   <time name="dav">    4.46    4.46</time>
   <time name="total">    4.62    4.62</time>
   <energy>
    <i name="e_fr_energy">    -95.49523403 </i>
    <i name="e_wo_entrp">    -95.47004860 </i>
    <i name="e_0_energy">    -95.48683889 </i>
   </energy>
  </scstep>
  <scstep>
   <time name="dav">    4.09    4.10</time>
   <time name="total">    4.25    4.25</time>
   <energy>
    <i name="e_fr_energy">    -95.49509014 </i>
    <i name="e_wo_entrp">    -95.47044346 </i>
    <i name="e_0_energy">    -95.48687458 </i>
   </energy>
  </scstep>
  <scstep>
   <time name="dav">    4.47    4.47</time>
   <time name="total">    4.62    4.62</time>
   <energy>
    <i name="e_fr_energy">    -95.49342107 </i>
    <i name="e_wo_entrp">    -95.46858240 </i>
    <i name="e_0_energy">    -95.48514151 </i>
   </energy>
  </scstep>
  <scstep>
   <time name="dav">    4.53    4.53</time>
   <time name="total">    4.68    4.68</time>
   <energy>
    <i name="e_fr_energy">    -95.49277460 </i>
    <i name="e_wo_entrp">    -95.46833801 </i>
    <i name="e_0_energy">    -95.48462907 </i>
   </energy>
  </scstep>
  <scstep>
   <time name="dav">    4.78    4.79</time>
   <time name="total">    4.94    4.94</time>
   <energy>
    <i name="e_fr_energy">    -95.49275951 </i>
    <i name="e_wo_entrp">    -95.46841239 </i>
    <i name="e_0_energy">    -95.48464380 </i>
   </energy>
  </scstep>
  <scstep>
   <time name="dav">    3.15    3.15</time>
   <time name="total">    3.30    3.30</time>
   <energy>
    <i name="e_fr_energy">    -95.49281743 </i>
    <i name="e_wo_entrp">    -95.46849057 </i>
    <i name="e_0_energy">    -95.48470848 </i>
   </energy>
  </scstep>
  <scstep>
   <time name="dav">    3.65    3.65</time>
   <time name="total">    3.81    3.81</time>
   <energy>
    <i name="e_fr_energy">    -95.49286545 </i>
    <i name="e_wo_entrp">    -95.46855370 </i>
    <i name="e_0_energy">    -95.48476153 </i>
   </energy>
  </scstep>
  <scstep>
   <time name="dav">    2.94    2.95</time>
   <time name="total">    3.10    3.10</time>
   <energy>
    <i name="e_fr_energy">    -95.49294997 </i>
    <i name="e_wo_entrp">    -95.46863008 </i>
    <i name="e_0_energy">    -95.48484334 </i>
   </energy>
  </scstep>
  <scstep>
   <time name="dav">    3.15    3.15</time>
   <time name="total">    3.30    3.31</time>
   <energy>
    <i name="e_fr_energy">    -95.49304842 </i>
    <i name="e_wo_entrp">    -95.46869897 </i>
    <i name="e_0_energy">    -95.48493193 </i>
   </energy>
  </scstep>
  <scstep>
   <time name="dav">    3.03    3.03</time>
   <time name="total">    3.18    3.19</time>
   <energy>
    <i name="e_fr_energy">    -95.49311490 </i>
    <i name="e_wo_entrp">    -95.46875233 </i>
    <i name="e_0_energy">    -95.48499405 </i>
   </energy>
  </scstep>
  <scstep>
   <time name="dav">    2.97    2.97</time>
   <time name="total">    3.13    3.13</time>
   <energy>
    <i name="e_fr_energy">    -95.49314505 </i>
    <i name="e_wo_entrp">    -95.46878898 </i>
    <i name="e_0_energy">    -95.48502636 </i>
   </energy>
  </scstep>
  <scstep>
   <time name="dav">    2.89    2.89</time>
   <time name="total">    3.05    3.05</time>
   <energy>
    <i name="e_fr_energy">    -95.49318045 </i>
    <i name="e_wo_entrp">    -95.46883060 </i>
    <i name="e_0_energy">    -95.48506383 </i>
   </energy>
  </scstep>
  <scstep>
   <time name="dav">    2.91    2.91</time>
   <time name="total">    2.93    2.93</time>
   <energy>
    <i name="alphaZ">    305.89839443 </i>
    <i name="ewald">  99027.89845496 </i>
    <i name="hartreedc">-110956.37450543 </i>
    <i name="XCdc">     43.34391465 </i>
    <i name="pawpsdc">  14224.52011778 </i>
    <i name="pawaedc"> -13810.01739680 </i>
    <i name="eentropy">     -0.02434633 </i>
    <i name="bandstr">   -636.90016445 </i>
    <i name="atom">  11706.16234457 </i>
    <i name="e_fr_energy">    -95.49318663 </i>
    <i name="e_wo_entrp">    -95.46884030 </i>
    <i name="e_0_energy">    -95.48507119 </i>
   </energy>
  </scstep>
  <dipole>
   <v name="dipole">      0.00000000       0.00000000      -0.04792161 </v>
   <i name="Tr[quadrupol]">   -956.76590334 </i>
   <i name="Echarged">      0.00000000 </i>
   <i name="Edipol_quadrupol">      0.00000000 </i>
   <i name="Eion">      0.00000000 </i>
  </dipole>
  <structure>
   <crystal>
    <varray name="basis" >
     <v>       5.55785930       0.00000000       0.00000000 </v>
     <v>       2.77892965       4.81324734       0.00000000 </v>
     <v>       0.00000000       0.00000000      30.80695967 </v>
    </varray>
    <i name="volume">    824.12780743 </i>
    <varray name="rec_basis" >
     <v>       0.17992539      -0.10387997       0.00000000 </v>
     <v>       0.00000000       0.20775994       0.00000000 </v>
     <v>       0.00000000       0.00000000       0.03246020 </v>
    </varray>
   </crystal>
   <varray name="positions" >
    <v>       0.00000000       0.00000000       0.38952237 </v>
    <v>       0.50000000       0.00000000       0.38952237 </v>
    <v>       0.00000000       0.50000000       0.38952237 </v>
    <v>       0.50000000       0.50000000       0.38952237 </v>
    <v>       0.16652883       0.16652883       0.46542487 </v>
    <v>       0.66694234       0.16652883       0.46542487 </v>
    <v>       0.16652883       0.66694234       0.46542487 </v>
    <v>       0.66666667       0.66666667       0.46426737 </v>
    <v>       0.83396869       0.33206261       0.54005199 </v>
    <v>       0.83396869       0.83396869       0.54005199 </v>
    <v>       0.33206261       0.83396869       0.54005199 </v>
    <v>       0.00000000       0.00000000       0.61904352 </v>
    <v>       0.50048728       0.99902544       0.61498914 </v>
    <v>       0.99902544       0.50048728       0.61498914 </v>
    <v>       0.50048728       0.50048728       0.61498914 </v>
    <v>       0.33333333       0.33333333       0.53994492 </v>
    <v>       0.00000000       0.00000000       0.66953436 </v>
   </varray>
  </structure>
  <varray name="forces" >
   <v>       0.00000000      -0.00000000       0.99096051 </v>
   <v>       0.00000000       0.15957620      -0.10597540 </v>
   <v>       0.13819704      -0.07978810      -0.10597540 </v>
   <v>      -0.13819704      -0.07978810      -0.10597540 </v>
   <v>      -0.22089728      -0.12753510      -0.47736000 </v>
   <v>       0.22089728      -0.12753510      -0.47736000 </v>
   <v>      -0.00000000       0.25507021      -0.47736000 </v>
   <v>       0.00000000      -0.00000000       0.09768527 </v>
   <v>       0.00000000       0.02225763       0.07058474 </v>
   <v>      -0.01927567      -0.01112881       0.07058474 </v>
   <v>       0.01927567      -0.01112881       0.07058474 </v>
   <v>       0.00000000      -0.00000000      -0.01070713 </v>
   <v>       0.00000000      -0.07219692       0.14876258 </v>
   <v>      -0.06252437       0.03609846       0.14876258 </v>
   <v>       0.06252437       0.03609846       0.14876258 </v>
   <v>       0.00000000      -0.00000000      -0.00517251 </v>
   <v>       0.00000000      -0.00000000       0.01919811 </v>
  </varray>
  <varray name="stress" >
   <v>     -22.25104095       0.00000000       0.00000000 </v>
   <v>       0.00000000     -22.25104095       0.00000000 </v>
   <v>       0.00000000      -0.00000000      -0.55811592 </v>
  </varray>
  <energy>
   <i name="e_fr_energy">    -95.49293451 </i>
   <i name="e_wo_entrp">    -95.48481907 </i>
   <i name="e_0_energy">     -0.02434633 </i>
  </energy>
  <time name="totalsc">  135.70  135.76</time>
  <eigenvalues>
   <array>
    <dimension dim="1">band</dimension>
    <dimension dim="2">kpoint</dimension>
    <dimension dim="3">spin</dimension>
    <field>eigene</field>
    <field>occ</field>
    <set>
     <set comment="spin 1">
      <set comment="kpoint 1">
       <r>  -10.1170    1.0000 </r>
       <r>   -8.8509    1.0000 </r>
       <r>   -7.7659    1.0000 </r>
       <r>   -7.6691    1.0000 </r>
       <r>   -7.4551    1.0000 </r>
       <r>   -7.4384    1.0000 </r>
       <r>   -7.3931    1.0000 </r>
       <r>   -7.2845    1.0000 </r>
       <r>   -7.2749    1.0000 </r>
       <r>   -7.1977    1.0000 </r>
       <r>   -6.8365    1.0000 </r>
       <r>   -6.8182    1.0000 </r>
       <r>   -6.8180    1.0000 </r>
       <r>   -6.5569    1.0000 </r>
       <r>   -6.5303    1.0000 </r>
       <r>   -6.5194    1.0000 </r>
       <r>   -6.4634    1.0000 </r>
       <r>   -6.4038    1.0000 </r>
       <r>   -6.3924    1.0000 </r>
       <r>   -5.9362    1.0000 </r>
       <r>   -5.6464    1.0000 </r>
       <r>   -5.6456    1.0000 </r>
       <r>   -5.4474    1.0000 </r>
       <r>   -4.8821    1.0000 </r>
       <r>   -4.8208    1.0000 </r>
       <r>   -4.8160    1.0000 </r>
       <r>   -4.6479    1.0000 </r>
       <r>   -4.6078    1.0000 </r>
       <r>   -4.6048    1.0000 </r>
       <r>   -4.5030    1.0000 </r>
       <r>   -4.4056    1.0000 </r>
       <r>   -4.3727    1.0000 </r>
       <r>   -4.2825    1.0000 </r>
       <r>   -4.1937    1.0000 </r>
       <r>   -4.1279    1.0000 </r>
       <r>   -3.9968    1.0000 </r>
       <r>   -3.9908    1.0000 </r>
       <r>   -3.8483    1.0000 </r>
       <r>   -3.7505    1.0000 </r>
       <r>   -3.7088    1.0000 </r>
       <r>   -3.6437    1.0000 </r>
       <r>   -3.5941    1.0000 </r>
       <r>   -3.4528    1.0000 </r>
       <r>   -3.3734    1.0000 </r>
       <r>   -3.3644    1.0000 </r>
       <r>   -3.1118    1.0000 </r>
       <r>   -2.9937    1.0000 </r>
       <r>   -2.9276    1.0000 </r>
       <r>   -2.8382    1.0000 </r>
       <r>   -2.7245    1.0000 </r>
       <r>   -2.6701    1.0000 </r>
       <r>   -2.4118    1.0000 </r>
       <r>   -2.3916    1.0000 </r>
       <r>   -2.3815    1.0000 </r>
       <r>   -1.9438    1.0000 </r>
       <r>   -1.9284    1.0000 </r>
       <r>   -1.7047    1.0000 </r>
       <r>   -1.6983    1.0000 </r>
       <r>   -1.6743    1.0000 </r>
       <r>   -1.6047    1.0000 </r>
       <r>   -1.5613    1.0000 </r>
       <r>   -1.5102    1.0000 </r>
       <r>   -1.2139    1.0023 </r>
       <r>   -1.2050    1.0028 </r>
       <r>   -1.1473    1.0079 </r>
       <r>   -1.0990    1.0159 </r>
       <r>   -1.0615    1.0241 </r>
       <r>   -0.9885    1.0354 </r>
       <r>   -0.9579    1.0302 </r>
       <r>   -0.9458    1.0249 </r>
       <r>   -0.8749    0.9386 </r>
       <r>   -0.8425    0.8597 </r>
       <r>   -0.7976    0.7098 </r>
       <r>   -0.7134    0.3632 </r>
       <r>   -0.6378    0.1076 </r>
       <r>   -0.5341   -0.0303 </r>
       <r>   -0.5139   -0.0348 </r>
       <r>   -0.4136   -0.0202 </r>
       <r>   -0.3292   -0.0060 </r>
       <r>   -0.3123   -0.0045 </r>
       <r>   -0.2425   -0.0011 </r>
       <r>   -0.1815   -0.0002 </r>
       <r>   -0.1783   -0.0002 </r>
       <r>   -0.0274   -0.0000 </r>
       <r>    0.0615   -0.0000 </r>
       <r>    0.1598   -0.0000 </r>
       <r>    0.4430   -0.0000 </r>
       <r>    0.4572   -0.0000 </r>
       <r>    1.2071   -0.0000 </r>
       <r>    1.4534   -0.0000 </r>
       <r>    1.6220   -0.0000 </r>
       <r>    1.6799   -0.0000 </r>
       <r>    1.7667   -0.0000 </r>
       <r>    1.8217   -0.0000 </r>
       <r>    2.4272   -0.0000 </r>
       <r>    2.6074   -0.0000 </r>
      </set>
      <set comment="kpoint 2">
       <r>   -9.9139    1.0000 </r>
       <r>   -8.6514    1.0000 </r>
       <r>   -7.5659    1.0000 </r>
       <r>   -7.4776    1.0000 </r>
       <r>   -7.4209    1.0000 </r>
       <r>   -7.3464    1.0000 </r>
       <r>   -7.2397    1.0000 </r>
       <r>   -7.1955    1.0000 </r>
       <r>   -7.1452    1.0000 </r>
       <r>   -7.0518    1.0000 </r>
       <r>   -6.7527    1.0000 </r>
       <r>   -6.7195    1.0000 </r>
       <r>   -6.7114    1.0000 </r>
       <r>   -6.5227    1.0000 </r>
       <r>   -6.4479    1.0000 </r>
       <r>   -6.3460    1.0000 </r>
       <r>   -6.3210    1.0000 </r>
       <r>   -6.2861    1.0000 </r>
       <r>   -6.2069    1.0000 </r>
       <r>   -5.8853    1.0000 </r>
       <r>   -5.5864    1.0000 </r>
       <r>   -5.5828    1.0000 </r>
       <r>   -5.4005    1.0000 </r>
       <r>   -4.8934    1.0000 </r>
       <r>   -4.8466    1.0000 </r>
       <r>   -4.7950    1.0000 </r>
       <r>   -4.7480    1.0000 </r>
       <r>   -4.5940    1.0000 </r>
       <r>   -4.5536    1.0000 </r>
       <r>   -4.5348    1.0000 </r>
       <r>   -4.4279    1.0000 </r>
       <r>   -4.4043    1.0000 </r>
       <r>   -4.2531    1.0000 </r>
       <r>   -4.0953    1.0000 </r>
       <r>   -4.0637    1.0000 </r>
       <r>   -4.0008    1.0000 </r>
       <r>   -3.9501    1.0000 </r>
       <r>   -3.8538    1.0000 </r>
       <r>   -3.8348    1.0000 </r>
       <r>   -3.7725    1.0000 </r>
       <r>   -3.5995    1.0000 </r>
       <r>   -3.5763    1.0000 </r>
       <r>   -3.5500    1.0000 </r>
       <r>   -3.5185    1.0000 </r>
       <r>   -3.4424    1.0000 </r>
       <r>   -3.4011    1.0000 </r>
       <r>   -3.2326    1.0000 </r>
       <r>   -3.1175    1.0000 </r>
       <r>   -2.8336    1.0000 </r>
       <r>   -2.7384    1.0000 </r>
       <r>   -2.6745    1.0000 </r>
       <r>   -2.6258    1.0000 </r>
       <r>   -2.4948    1.0000 </r>
       <r>   -2.4406    1.0000 </r>
       <r>   -2.0645    1.0000 </r>
       <r>   -1.9637    1.0000 </r>
       <r>   -1.9226    1.0000 </r>
       <r>   -1.8498    1.0000 </r>
       <r>   -1.8122    1.0000 </r>
       <r>   -1.7667    1.0000 </r>
       <r>   -1.7328    1.0000 </r>
       <r>   -1.7068    1.0000 </r>
       <r>   -1.6133    1.0000 </r>
       <r>   -1.5844    1.0000 </r>
       <r>   -1.4959    1.0000 </r>
       <r>   -1.4204    1.0000 </r>
       <r>   -1.2910    1.0004 </r>
       <r>   -1.2175    1.0021 </r>
       <r>   -1.1724    1.0051 </r>
       <r>   -1.1274    1.0107 </r>
       <r>   -1.0156    1.0335 </r>
       <r>   -0.9933    1.0354 </r>
       <r>   -0.9268    1.0119 </r>
       <r>   -0.8668    0.9215 </r>
       <r>   -0.7867    0.6676 </r>
       <r>   -0.7533    0.5298 </r>
       <r>   -0.7327    0.4431 </r>
       <r>   -0.7073    0.3389 </r>
       <r>   -0.6600    0.1701 </r>
       <r>   -0.6055    0.0389 </r>
       <r>   -0.4817   -0.0342 </r>
       <r>   -0.4254   -0.0229 </r>
       <r>   -0.3798   -0.0132 </r>
       <r>   -0.3217   -0.0053 </r>
       <r>   -0.1295   -0.0001 </r>
       <r>    0.2281   -0.0000 </r>
       <r>    0.3115   -0.0000 </r>
       <r>    0.5885   -0.0000 </r>
       <r>    0.8669   -0.0000 </r>
       <r>    1.0738   -0.0000 </r>
       <r>    1.3379   -0.0000 </r>
       <r>    1.6194   -0.0000 </r>
       <r>    2.1736   -0.0000 </r>
       <r>    2.5012   -0.0000 </r>
       <r>    2.7837   -0.0000 </r>
       <r>    3.0570   -0.0000 </r>
      </set>
      <set comment="kpoint 3">
       <r>   -9.4626    1.0000 </r>
       <r>   -8.2209    1.0000 </r>
       <r>   -7.5047    1.0000 </r>
       <r>   -7.1633    1.0000 </r>
       <r>   -7.1097    1.0000 </r>
       <r>   -7.0641    1.0000 </r>
       <r>   -7.0473    1.0000 </r>
       <r>   -6.9092    1.0000 </r>
       <r>   -6.8627    1.0000 </r>
       <r>   -6.7571    1.0000 </r>
       <r>   -6.5979    1.0000 </r>
       <r>   -6.5030    1.0000 </r>
       <r>   -6.4654    1.0000 </r>
       <r>   -6.4406    1.0000 </r>
       <r>   -6.2093    1.0000 </r>
       <r>   -6.1667    1.0000 </r>
       <r>   -6.0212    1.0000 </r>
       <r>   -5.9465    1.0000 </r>
       <r>   -5.8424    1.0000 </r>
       <r>   -5.7071    1.0000 </r>
       <r>   -5.4539    1.0000 </r>
       <r>   -5.4423    1.0000 </r>
       <r>   -5.3142    1.0000 </r>
       <r>   -5.0580    1.0000 </r>
       <r>   -4.9451    1.0000 </r>
       <r>   -4.9034    1.0000 </r>
       <r>   -4.8399    1.0000 </r>
       <r>   -4.7090    1.0000 </r>
       <r>   -4.6283    1.0000 </r>
       <r>   -4.4748    1.0000 </r>
       <r>   -4.4119    1.0000 </r>
       <r>   -4.3117    1.0000 </r>
       <r>   -4.1855    1.0000 </r>
       <r>   -4.1183    1.0000 </r>
       <r>   -4.1001    1.0000 </r>
       <r>   -4.0455    1.0000 </r>
       <r>   -3.9841    1.0000 </r>
       <r>   -3.9571    1.0000 </r>
       <r>   -3.8763    1.0000 </r>
       <r>   -3.8540    1.0000 </r>
       <r>   -3.7605    1.0000 </r>
       <r>   -3.7326    1.0000 </r>
       <r>   -3.7061    1.0000 </r>
       <r>   -3.6995    1.0000 </r>
       <r>   -3.5554    1.0000 </r>
       <r>   -3.4472    1.0000 </r>
       <r>   -3.2795    1.0000 </r>
       <r>   -3.1820    1.0000 </r>
       <r>   -3.1414    1.0000 </r>
       <r>   -2.8681    1.0000 </r>
       <r>   -2.8216    1.0000 </r>
       <r>   -2.7552    1.0000 </r>
       <r>   -2.7416    1.0000 </r>
       <r>   -2.6301    1.0000 </r>
       <r>   -2.5872    1.0000 </r>
       <r>   -2.5421    1.0000 </r>
       <r>   -2.5063    1.0000 </r>
       <r>   -2.3857    1.0000 </r>
       <r>   -2.3559    1.0000 </r>
       <r>   -2.2807    1.0000 </r>
       <r>   -2.2411    1.0000 </r>
       <r>   -2.0878    1.0000 </r>
       <r>   -2.0029    1.0000 </r>
       <r>   -1.9100    1.0000 </r>
       <r>   -1.8576    1.0000 </r>
       <r>   -1.8270    1.0000 </r>
       <r>   -1.7245    1.0000 </r>
       <r>   -1.5821    1.0000 </r>
       <r>   -1.5432    1.0000 </r>
       <r>   -1.4957    1.0000 </r>
       <r>   -1.4364    1.0000 </r>
       <r>   -1.3854    1.0000 </r>
       <r>   -1.2818    1.0005 </r>
       <r>   -1.2308    1.0016 </r>
       <r>   -1.1319    1.0100 </r>
       <r>   -1.0594    1.0246 </r>
       <r>   -1.0054    1.0347 </r>
       <r>   -0.9317    1.0159 </r>
       <r>   -0.8558    0.8954 </r>
       <r>   -0.7936    0.6945 </r>
       <r>   -0.7374    0.4626 </r>
       <r>   -0.6976    0.3010 </r>
       <r>   -0.5579   -0.0180 </r>
       <r>   -0.5072   -0.0353 </r>
       <r>   -0.4293   -0.0238 </r>
       <r>   -0.0285   -0.0000 </r>
       <r>    0.3426   -0.0000 </r>
       <r>    0.5718   -0.0000 </r>
       <r>    1.0337   -0.0000 </r>
       <r>    1.4552   -0.0000 </r>
       <r>    1.7394   -0.0000 </r>
       <r>    1.9771   -0.0000 </r>
       <r>    2.3614   -0.0000 </r>
       <r>    2.4480   -0.0000 </r>
       <r>    3.1970   -0.0000 </r>
       <r>    3.5794   -0.0000 </r>
      </set>
      <set comment="kpoint 4">
       <r>   -8.8281    1.0000 </r>
       <r>   -7.8504    1.0000 </r>
       <r>   -7.6705    1.0000 </r>
       <r>   -7.1153    1.0000 </r>
       <r>   -6.7950    1.0000 </r>
       <r>   -6.7149    1.0000 </r>
       <r>   -6.6350    1.0000 </r>
       <r>   -6.5533    1.0000 </r>
       <r>   -6.4926    1.0000 </r>
       <r>   -6.4539    1.0000 </r>
       <r>   -6.4414    1.0000 </r>
       <r>   -6.2770    1.0000 </r>
       <r>   -6.1482    1.0000 </r>
       <r>   -6.0670    1.0000 </r>
       <r>   -6.0240    1.0000 </r>
       <r>   -5.9692    1.0000 </r>
       <r>   -5.8425    1.0000 </r>
       <r>   -5.6297    1.0000 </r>
       <r>   -5.4749    1.0000 </r>
       <r>   -5.4711    1.0000 </r>
       <r>   -5.3141    1.0000 </r>
       <r>   -5.2798    1.0000 </r>
       <r>   -5.1960    1.0000 </r>
       <r>   -5.1670    1.0000 </r>
       <r>   -5.0953    1.0000 </r>
       <r>   -4.9866    1.0000 </r>
       <r>   -4.9279    1.0000 </r>
       <r>   -4.8471    1.0000 </r>
       <r>   -4.6827    1.0000 </r>
       <r>   -4.5896    1.0000 </r>
       <r>   -4.5402    1.0000 </r>
       <r>   -4.5135    1.0000 </r>
       <r>   -4.3594    1.0000 </r>
       <r>   -4.3127    1.0000 </r>
       <r>   -4.2858    1.0000 </r>
       <r>   -4.1811    1.0000 </r>
       <r>   -4.0820    1.0000 </r>
       <r>   -4.0344    1.0000 </r>
       <r>   -3.9172    1.0000 </r>
       <r>   -3.8484    1.0000 </r>
       <r>   -3.7994    1.0000 </r>
       <r>   -3.7447    1.0000 </r>
       <r>   -3.6603    1.0000 </r>
       <r>   -3.6315    1.0000 </r>
       <r>   -3.5785    1.0000 </r>
       <r>   -3.5193    1.0000 </r>
       <r>   -3.4653    1.0000 </r>
       <r>   -3.3635    1.0000 </r>
       <r>   -3.3503    1.0000 </r>
       <r>   -3.3286    1.0000 </r>
       <r>   -3.2827    1.0000 </r>
       <r>   -3.2198    1.0000 </r>
       <r>   -3.1589    1.0000 </r>
       <r>   -3.0586    1.0000 </r>
       <r>   -2.9795    1.0000 </r>
       <r>   -2.8488    1.0000 </r>
       <r>   -2.8382    1.0000 </r>
       <r>   -2.7550    1.0000 </r>
       <r>   -2.6606    1.0000 </r>
       <r>   -2.5872    1.0000 </r>
       <r>   -2.3734    1.0000 </r>
       <r>   -2.3468    1.0000 </r>
       <r>   -2.3138    1.0000 </r>
       <r>   -2.2673    1.0000 </r>
       <r>   -2.2263    1.0000 </r>
       <r>   -2.1578    1.0000 </r>
       <r>   -2.0316    1.0000 </r>
       <r>   -1.9704    1.0000 </r>
       <r>   -1.8964    1.0000 </r>
       <r>   -1.8495    1.0000 </r>
       <r>   -1.8076    1.0000 </r>
       <r>   -1.7813    1.0000 </r>
       <r>   -1.5305    1.0000 </r>
       <r>   -1.4486    1.0000 </r>
       <r>   -1.3366    1.0001 </r>
       <r>   -1.2642    1.0008 </r>
       <r>   -1.2096    1.0025 </r>
       <r>   -1.0462    1.0277 </r>
       <r>   -0.9726    1.0340 </r>
       <r>   -0.8952    0.9746 </r>
       <r>   -0.7980    0.7112 </r>
       <r>   -0.7110    0.3536 </r>
       <r>   -0.6844    0.2520 </r>
       <r>   -0.5063   -0.0354 </r>
       <r>   -0.4365   -0.0254 </r>
       <r>   -0.2965   -0.0033 </r>
       <r>    0.6242   -0.0000 </r>
       <r>    0.7160   -0.0000 </r>
       <r>    1.1923   -0.0000 </r>
       <r>    1.6000   -0.0000 </r>
       <r>    1.8243   -0.0000 </r>
       <r>    2.1239   -0.0000 </r>
       <r>    2.5285   -0.0000 </r>
       <r>    2.6423   -0.0000 </r>
       <r>    3.4661   -0.0000 </r>
       <r>    3.8240   -0.0000 </r>
      </set>
      <set comment="kpoint 5">
       <r>   -8.4842    1.0000 </r>
       <r>   -8.1352    1.0000 </r>
       <r>   -7.4242    1.0000 </r>
       <r>   -7.2212    1.0000 </r>
       <r>   -6.7150    1.0000 </r>
       <r>   -6.6214    1.0000 </r>
       <r>   -6.5469    1.0000 </r>
       <r>   -6.4737    1.0000 </r>
       <r>   -6.3917    1.0000 </r>
       <r>   -6.3016    1.0000 </r>
       <r>   -6.2720    1.0000 </r>
       <r>   -6.2133    1.0000 </r>
       <r>   -6.1278    1.0000 </r>
       <r>   -6.0291    1.0000 </r>
       <r>   -5.9100    1.0000 </r>
       <r>   -5.8166    1.0000 </r>
       <r>   -5.7269    1.0000 </r>
       <r>   -5.6040    1.0000 </r>
       <r>   -5.5866    1.0000 </r>
       <r>   -5.4472    1.0000 </r>
       <r>   -5.3213    1.0000 </r>
       <r>   -5.2496    1.0000 </r>
       <r>   -5.1677    1.0000 </r>
       <r>   -5.1050    1.0000 </r>
       <r>   -5.0554    1.0000 </r>
       <r>   -4.9706    1.0000 </r>
       <r>   -4.9339    1.0000 </r>
       <r>   -4.8543    1.0000 </r>
       <r>   -4.8238    1.0000 </r>
       <r>   -4.5854    1.0000 </r>
       <r>   -4.5539    1.0000 </r>
       <r>   -4.5213    1.0000 </r>
       <r>   -4.4325    1.0000 </r>
       <r>   -4.3719    1.0000 </r>
       <r>   -4.3470    1.0000 </r>
       <r>   -4.1707    1.0000 </r>
       <r>   -4.0546    1.0000 </r>
       <r>   -4.0006    1.0000 </r>
       <r>   -3.9656    1.0000 </r>
       <r>   -3.9159    1.0000 </r>
       <r>   -3.8191    1.0000 </r>
       <r>   -3.8002    1.0000 </r>
       <r>   -3.7353    1.0000 </r>
       <r>   -3.6867    1.0000 </r>
       <r>   -3.6284    1.0000 </r>
       <r>   -3.5897    1.0000 </r>
       <r>   -3.5612    1.0000 </r>
       <r>   -3.5467    1.0000 </r>
       <r>   -3.4931    1.0000 </r>
       <r>   -3.4623    1.0000 </r>
       <r>   -3.3511    1.0000 </r>
       <r>   -3.3232    1.0000 </r>
       <r>   -3.2655    1.0000 </r>
       <r>   -3.2150    1.0000 </r>
       <r>   -2.9435    1.0000 </r>
       <r>   -2.9104    1.0000 </r>
       <r>   -2.8002    1.0000 </r>
       <r>   -2.7428    1.0000 </r>
       <r>   -2.6756    1.0000 </r>
       <r>   -2.5429    1.0000 </r>
       <r>   -2.4813    1.0000 </r>
       <r>   -2.4140    1.0000 </r>
       <r>   -2.3896    1.0000 </r>
       <r>   -2.2911    1.0000 </r>
       <r>   -2.2246    1.0000 </r>
       <r>   -2.1872    1.0000 </r>
       <r>   -2.1234    1.0000 </r>
       <r>   -2.0584    1.0000 </r>
       <r>   -1.9999    1.0000 </r>
       <r>   -1.9191    1.0000 </r>
       <r>   -1.9057    1.0000 </r>
       <r>   -1.8418    1.0000 </r>
       <r>   -1.7713    1.0000 </r>
       <r>   -1.5500    1.0000 </r>
       <r>   -1.3719    1.0000 </r>
       <r>   -1.3552    1.0001 </r>
       <r>   -1.2650    1.0008 </r>
       <r>   -1.0541    1.0259 </r>
       <r>   -0.9663    1.0327 </r>
       <r>   -0.8296    0.8212 </r>
       <r>   -0.7862    0.6657 </r>
       <r>   -0.7022    0.3187 </r>
       <r>   -0.6840    0.2503 </r>
       <r>   -0.5015   -0.0355 </r>
       <r>   -0.4410   -0.0265 </r>
       <r>   -0.4094   -0.0193 </r>
       <r>    0.7171   -0.0000 </r>
       <r>    0.7806   -0.0000 </r>
       <r>    1.2423   -0.0000 </r>
       <r>    1.5232   -0.0000 </r>
       <r>    1.8295   -0.0000 </r>
       <r>    2.1024   -0.0000 </r>
       <r>    2.5693   -0.0000 </r>
       <r>    2.8054   -0.0000 </r>
       <r>    3.6800   -0.0000 </r>
       <r>    3.8833   -0.0000 </r>
      </set>
      <set comment="kpoint 6">
       <r>   -9.1618    1.0000 </r>
       <r>   -7.9498    1.0000 </r>
       <r>   -7.6342    1.0000 </r>
       <r>   -7.0867    1.0000 </r>
       <r>   -6.9335    1.0000 </r>
       <r>   -6.8971    1.0000 </r>
       <r>   -6.8014    1.0000 </r>
       <r>   -6.7400    1.0000 </r>
       <r>   -6.6740    1.0000 </r>
       <r>   -6.6051    1.0000 </r>
       <r>   -6.5406    1.0000 </r>
       <r>   -6.3847    1.0000 </r>
       <r>   -6.3158    1.0000 </r>
       <r>   -6.2511    1.0000 </r>
       <r>   -6.1015    1.0000 </r>
       <r>   -6.0698    1.0000 </r>
       <r>   -5.9131    1.0000 </r>
       <r>   -5.7557    1.0000 </r>
       <r>   -5.6439    1.0000 </r>
       <r>   -5.5389    1.0000 </r>
       <r>   -5.3721    1.0000 </r>
       <r>   -5.3301    1.0000 </r>
       <r>   -5.2833    1.0000 </r>
       <r>   -5.1566    1.0000 </r>
       <r>   -5.0441    1.0000 </r>
       <r>   -4.9617    1.0000 </r>
       <r>   -4.8969    1.0000 </r>
       <r>   -4.7833    1.0000 </r>
       <r>   -4.6228    1.0000 </r>
       <r>   -4.5077    1.0000 </r>
       <r>   -4.4538    1.0000 </r>
       <r>   -4.3993    1.0000 </r>
       <r>   -4.2606    1.0000 </r>
       <r>   -4.1929    1.0000 </r>
       <r>   -4.1673    1.0000 </r>
       <r>   -4.1033    1.0000 </r>
       <r>   -4.0893    1.0000 </r>
       <r>   -4.0715    1.0000 </r>
       <r>   -3.9289    1.0000 </r>
       <r>   -3.8515    1.0000 </r>
       <r>   -3.7903    1.0000 </r>
       <r>   -3.7374    1.0000 </r>
       <r>   -3.6955    1.0000 </r>
       <r>   -3.6099    1.0000 </r>
       <r>   -3.5512    1.0000 </r>
       <r>   -3.5175    1.0000 </r>
       <r>   -3.3687    1.0000 </r>
       <r>   -3.1939    1.0000 </r>
       <r>   -3.1220    1.0000 </r>
       <r>   -3.0441    1.0000 </r>
       <r>   -3.0137    1.0000 </r>
       <r>   -2.9824    1.0000 </r>
       <r>   -2.9351    1.0000 </r>
       <r>   -2.8822    1.0000 </r>
       <r>   -2.8329    1.0000 </r>
       <r>   -2.7852    1.0000 </r>
       <r>   -2.7293    1.0000 </r>
       <r>   -2.6766    1.0000 </r>
       <r>   -2.6476    1.0000 </r>
       <r>   -2.5034    1.0000 </r>
       <r>   -2.4440    1.0000 </r>
       <r>   -2.1898    1.0000 </r>
       <r>   -2.1505    1.0000 </r>
       <r>   -2.0918    1.0000 </r>
       <r>   -2.0594    1.0000 </r>
       <r>   -2.0080    1.0000 </r>
       <r>   -1.8833    1.0000 </r>
       <r>   -1.8684    1.0000 </r>
       <r>   -1.7737    1.0000 </r>
       <r>   -1.7006    1.0000 </r>
       <r>   -1.6485    1.0000 </r>
       <r>   -1.5292    1.0000 </r>
       <r>   -1.4201    1.0000 </r>
       <r>   -1.3247    1.0002 </r>
       <r>   -1.2454    1.0012 </r>
       <r>   -1.1586    1.0065 </r>
       <r>   -1.0457    1.0278 </r>
       <r>   -0.9980    1.0353 </r>
       <r>   -0.9667    1.0327 </r>
       <r>   -0.9338    1.0175 </r>
       <r>   -0.7856    0.6631 </r>
       <r>   -0.7149    0.3694 </r>
       <r>   -0.6754    0.2202 </r>
       <r>   -0.5126   -0.0349 </r>
       <r>   -0.4349   -0.0251 </r>
       <r>   -0.1322   -0.0001 </r>
       <r>    0.4400   -0.0000 </r>
       <r>    0.6557   -0.0000 </r>
       <r>    1.1221   -0.0000 </r>
       <r>    1.6087   -0.0000 </r>
       <r>    1.8069   -0.0000 </r>
       <r>    2.1788   -0.0000 </r>
       <r>    2.3394   -0.0000 </r>
       <r>    2.4971   -0.0000 </r>
       <r>    3.3199   -0.0000 </r>
       <r>    3.7291   -0.0000 </r>
      </set>
      <set comment="kpoint 7">
       <r>   -9.7165    1.0000 </r>
       <r>   -8.4604    1.0000 </r>
       <r>   -7.4478    1.0000 </r>
       <r>   -7.3701    1.0000 </r>
       <r>   -7.2962    1.0000 </r>
       <r>   -7.2318    1.0000 </r>
       <r>   -7.1403    1.0000 </r>
       <r>   -7.0819    1.0000 </r>
       <r>   -7.0199    1.0000 </r>
       <r>   -6.9134    1.0000 </r>
       <r>   -6.6754    1.0000 </r>
       <r>   -6.6242    1.0000 </r>
       <r>   -6.6012    1.0000 </r>
       <r>   -6.5087    1.0000 </r>
       <r>   -6.3355    1.0000 </r>
       <r>   -6.2602    1.0000 </r>
       <r>   -6.1726    1.0000 </r>
       <r>   -6.1378    1.0000 </r>
       <r>   -6.0369    1.0000 </r>
       <r>   -5.8221    1.0000 </r>
       <r>   -5.5289    1.0000 </r>
       <r>   -5.5225    1.0000 </r>
       <r>   -5.3589    1.0000 </r>
       <r>   -4.9516    1.0000 </r>
       <r>   -4.8803    1.0000 </r>
       <r>   -4.8373    1.0000 </r>
       <r>   -4.7895    1.0000 </r>
       <r>   -4.6391    1.0000 </r>
       <r>   -4.5885    1.0000 </r>
       <r>   -4.5071    1.0000 </r>
       <r>   -4.4376    1.0000 </r>
       <r>   -4.3634    1.0000 </r>
       <r>   -4.1741    1.0000 </r>
       <r>   -4.0759    1.0000 </r>
       <r>   -4.0291    1.0000 </r>
       <r>   -4.0179    1.0000 </r>
       <r>   -3.9315    1.0000 </r>
       <r>   -3.9004    1.0000 </r>
       <r>   -3.8766    1.0000 </r>
       <r>   -3.7955    1.0000 </r>
       <r>   -3.7341    1.0000 </r>
       <r>   -3.6790    1.0000 </r>
       <r>   -3.6424    1.0000 </r>
       <r>   -3.5769    1.0000 </r>
       <r>   -3.4346    1.0000 </r>
       <r>   -3.4181    1.0000 </r>
       <r>   -3.3123    1.0000 </r>
       <r>   -3.2726    1.0000 </r>
       <r>   -2.9616    1.0000 </r>
       <r>   -2.8133    1.0000 </r>
       <r>   -2.7337    1.0000 </r>
       <r>   -2.6801    1.0000 </r>
       <r>   -2.5821    1.0000 </r>
       <r>   -2.4889    1.0000 </r>
       <r>   -2.2823    1.0000 </r>
       <r>   -2.2212    1.0000 </r>
       <r>   -2.1604    1.0000 </r>
       <r>   -2.1040    1.0000 </r>
       <r>   -2.0261    1.0000 </r>
       <r>   -1.9854    1.0000 </r>
       <r>   -1.9376    1.0000 </r>
       <r>   -1.8926    1.0000 </r>
       <r>   -1.7939    1.0000 </r>
       <r>   -1.7611    1.0000 </r>
       <r>   -1.7258    1.0000 </r>
       <r>   -1.6201    1.0000 </r>
       <r>   -1.5077    1.0000 </r>
       <r>   -1.4003    1.0000 </r>
       <r>   -1.3196    1.0002 </r>
       <r>   -1.2667    1.0007 </r>
       <r>   -1.2389    1.0014 </r>
       <r>   -1.1688    1.0055 </r>
       <r>   -1.1154    1.0127 </r>
       <r>   -1.0661    1.0231 </r>
       <r>   -0.9687    1.0332 </r>
       <r>   -0.9384    1.0206 </r>
       <r>   -0.9072    0.9913 </r>
       <r>   -0.8465    0.8708 </r>
       <r>   -0.7528    0.5280 </r>
       <r>   -0.7132    0.3623 </r>
       <r>   -0.5961    0.0238 </r>
       <r>   -0.5396   -0.0282 </r>
       <r>   -0.4792   -0.0339 </r>
       <r>   -0.4239   -0.0225 </r>
       <r>   -0.2627   -0.0017 </r>
       <r>   -0.1587   -0.0001 </r>
       <r>    0.4483   -0.0000 </r>
       <r>    0.5683   -0.0000 </r>
       <r>    0.9378   -0.0000 </r>
       <r>    1.1342   -0.0000 </r>
       <r>    1.5964   -0.0000 </r>
       <r>    1.7816   -0.0000 </r>
       <r>    2.2567   -0.0000 </r>
       <r>    2.5787   -0.0000 </r>
       <r>    2.9943   -0.0000 </r>
       <r>    3.4774   -0.0000 </r>
      </set>
      <set comment="kpoint 8">
       <r>  -10.0487    1.0000 </r>
       <r>   -8.7835    1.0000 </r>
       <r>   -7.6978    1.0000 </r>
       <r>   -7.6040    1.0000 </r>
       <r>   -7.4341    1.0000 </r>
       <r>   -7.4107    1.0000 </r>
       <r>   -7.3447    1.0000 </r>
       <r>   -7.2523    1.0000 </r>
       <r>   -7.2301    1.0000 </r>
       <r>   -7.1502    1.0000 </r>
       <r>   -6.8082    1.0000 </r>
       <r>   -6.7848    1.0000 </r>
       <r>   -6.7827    1.0000 </r>
       <r>   -6.5359    1.0000 </r>
       <r>   -6.5164    1.0000 </r>
       <r>   -6.4502    1.0000 </r>
       <r>   -6.4145    1.0000 </r>
       <r>   -6.3686    1.0000 </r>
       <r>   -6.3297    1.0000 </r>
       <r>   -5.9202    1.0000 </r>
       <r>   -5.6262    1.0000 </r>
       <r>   -5.6242    1.0000 </r>
       <r>   -5.4312    1.0000 </r>
       <r>   -4.8827    1.0000 </r>
       <r>   -4.8251    1.0000 </r>
       <r>   -4.8055    1.0000 </r>
       <r>   -4.6839    1.0000 </r>
       <r>   -4.5990    1.0000 </r>
       <r>   -4.5854    1.0000 </r>
       <r>   -4.5083    1.0000 </r>
       <r>   -4.4196    1.0000 </r>
       <r>   -4.3481    1.0000 </r>
       <r>   -4.3302    1.0000 </r>
       <r>   -4.1573    1.0000 </r>
       <r>   -4.0917    1.0000 </r>
       <r>   -3.9973    1.0000 </r>
       <r>   -3.9781    1.0000 </r>
       <r>   -3.8454    1.0000 </r>
       <r>   -3.7866    1.0000 </r>
       <r>   -3.6934    1.0000 </r>
       <r>   -3.6630    1.0000 </r>
       <r>   -3.5483    1.0000 </r>
       <r>   -3.4926    1.0000 </r>
       <r>   -3.4440    1.0000 </r>
       <r>   -3.4147    1.0000 </r>
       <r>   -3.2326    1.0000 </r>
       <r>   -3.0745    1.0000 </r>
       <r>   -3.0094    1.0000 </r>
       <r>   -2.8237    1.0000 </r>
       <r>   -2.7170    1.0000 </r>
       <r>   -2.6292    1.0000 </r>
       <r>   -2.5157    1.0000 </r>
       <r>   -2.4290    1.0000 </r>
       <r>   -2.4087    1.0000 </r>
       <r>   -1.9707    1.0000 </r>
       <r>   -1.9195    1.0000 </r>
       <r>   -1.7565    1.0000 </r>
       <r>   -1.7309    1.0000 </r>
       <r>   -1.7110    1.0000 </r>
       <r>   -1.6829    1.0000 </r>
       <r>   -1.6168    1.0000 </r>
       <r>   -1.5795    1.0000 </r>
       <r>   -1.3894    1.0000 </r>
       <r>   -1.3262    1.0002 </r>
       <r>   -1.2649    1.0008 </r>
       <r>   -1.1918    1.0036 </r>
       <r>   -1.1382    1.0091 </r>
       <r>   -1.1084    1.0140 </r>
       <r>   -1.0464    1.0276 </r>
       <r>   -1.0144    1.0337 </r>
       <r>   -0.9261    1.0113 </r>
       <r>   -0.8735    0.9357 </r>
       <r>   -0.7820    0.6486 </r>
       <r>   -0.7422    0.4831 </r>
       <r>   -0.6775    0.2275 </r>
       <r>   -0.6485    0.1362 </r>
       <r>   -0.6008    0.0311 </r>
       <r>   -0.5437   -0.0264 </r>
       <r>   -0.4789   -0.0338 </r>
       <r>   -0.4598   -0.0305 </r>
       <r>   -0.3738   -0.0122 </r>
       <r>   -0.3266   -0.0057 </r>
       <r>   -0.2056   -0.0004 </r>
       <r>   -0.1126   -0.0000 </r>
       <r>    0.1262   -0.0000 </r>
       <r>    0.1860   -0.0000 </r>
       <r>    0.2463   -0.0000 </r>
       <r>    0.8401   -0.0000 </r>
       <r>    0.9116   -0.0000 </r>
       <r>    1.0147   -0.0000 </r>
       <r>    1.3733   -0.0000 </r>
       <r>    1.5702   -0.0000 </r>
       <r>    2.0253   -0.0000 </r>
       <r>    2.2202   -0.0000 </r>
       <r>    2.5133   -0.0000 </r>
       <r>    2.7432   -0.0000 </r>
      </set>
      <set comment="kpoint 9">
       <r>   -9.8476    1.0000 </r>
       <r>   -8.5869    1.0000 </r>
       <r>   -7.5068    1.0000 </r>
       <r>   -7.4472    1.0000 </r>
       <r>   -7.4136    1.0000 </r>
       <r>   -7.2464    1.0000 </r>
       <r>   -7.2310    1.0000 </r>
       <r>   -7.1796    1.0000 </r>
       <r>   -7.0849    1.0000 </r>
       <r>   -7.0095    1.0000 </r>
       <r>   -6.7263    1.0000 </r>
       <r>   -6.6848    1.0000 </r>
       <r>   -6.6787    1.0000 </r>
       <r>   -6.5401    1.0000 </r>
       <r>   -6.3531    1.0000 </r>
       <r>   -6.3206    1.0000 </r>
       <r>   -6.3126    1.0000 </r>
       <r>   -6.2108    1.0000 </r>
       <r>   -6.1597    1.0000 </r>
       <r>   -5.8659    1.0000 </r>
       <r>   -5.5683    1.0000 </r>
       <r>   -5.5615    1.0000 </r>
       <r>   -5.3861    1.0000 </r>
       <r>   -4.9048    1.0000 </r>
       <r>   -4.8470    1.0000 </r>
       <r>   -4.8189    1.0000 </r>
       <r>   -4.7675    1.0000 </r>
       <r>   -4.6065    1.0000 </r>
       <r>   -4.5424    1.0000 </r>
       <r>   -4.5359    1.0000 </r>
       <r>   -4.4495    1.0000 </r>
       <r>   -4.3872    1.0000 </r>
       <r>   -4.2171    1.0000 </r>
       <r>   -4.0712    1.0000 </r>
       <r>   -4.0663    1.0000 </r>
       <r>   -4.0063    1.0000 </r>
       <r>   -3.9387    1.0000 </r>
       <r>   -3.8752    1.0000 </r>
       <r>   -3.8206    1.0000 </r>
       <r>   -3.8070    1.0000 </r>
       <r>   -3.6435    1.0000 </r>
       <r>   -3.6007    1.0000 </r>
       <r>   -3.5804    1.0000 </r>
       <r>   -3.5145    1.0000 </r>
       <r>   -3.4502    1.0000 </r>
       <r>   -3.4029    1.0000 </r>
       <r>   -3.3345    1.0000 </r>
       <r>   -3.1495    1.0000 </r>
       <r>   -2.8266    1.0000 </r>
       <r>   -2.8144    1.0000 </r>
       <r>   -2.6919    1.0000 </r>
       <r>   -2.6444    1.0000 </r>
       <r>   -2.5176    1.0000 </r>
       <r>   -2.4658    1.0000 </r>
       <r>   -2.1104    1.0000 </r>
       <r>   -2.0439    1.0000 </r>
       <r>   -1.9705    1.0000 </r>
       <r>   -1.9389    1.0000 </r>
       <r>   -1.9179    1.0000 </r>
       <r>   -1.8526    1.0000 </r>
       <r>   -1.8332    1.0000 </r>
       <r>   -1.7029    1.0000 </r>
       <r>   -1.6734    1.0000 </r>
       <r>   -1.6455    1.0000 </r>
       <r>   -1.5964    1.0000 </r>
       <r>   -1.4980    1.0000 </r>
       <r>   -1.2987    1.0003 </r>
       <r>   -1.2913    1.0004 </r>
       <r>   -1.2376    1.0014 </r>
       <r>   -1.1721    1.0051 </r>
       <r>   -1.1058    1.0145 </r>
       <r>   -1.0444    1.0281 </r>
       <r>   -1.0282    1.0314 </r>
       <r>   -0.9106    0.9955 </r>
       <r>   -0.8891    0.9649 </r>
       <r>   -0.8381    0.8470 </r>
       <r>   -0.7945    0.6979 </r>
       <r>   -0.7435    0.4887 </r>
       <r>   -0.6855    0.2560 </r>
       <r>   -0.6426    0.1202 </r>
       <r>   -0.5123   -0.0350 </r>
       <r>   -0.4825   -0.0343 </r>
       <r>   -0.4023   -0.0177 </r>
       <r>   -0.3786   -0.0130 </r>
       <r>   -0.2804   -0.0024 </r>
       <r>   -0.2098   -0.0005 </r>
       <r>    0.5727   -0.0000 </r>
       <r>    0.8705   -0.0000 </r>
       <r>    0.9305   -0.0000 </r>
       <r>    0.9778   -0.0000 </r>
       <r>    1.5645   -0.0000 </r>
       <r>    1.5836   -0.0000 </r>
       <r>    2.1432   -0.0000 </r>
       <r>    2.2869   -0.0000 </r>
       <r>    2.7942   -0.0000 </r>
       <r>    3.4714   -0.0000 </r>
      </set>
      <set comment="kpoint 10">
       <r>   -9.5241    1.0000 </r>
       <r>   -8.2771    1.0000 </r>
       <r>   -7.3947    1.0000 </r>
       <r>   -7.2563    1.0000 </r>
       <r>   -7.1962    1.0000 </r>
       <r>   -7.1136    1.0000 </r>
       <r>   -7.0419    1.0000 </r>
       <r>   -6.9547    1.0000 </r>
       <r>   -6.9131    1.0000 </r>
       <r>   -6.7858    1.0000 </r>
       <r>   -6.6034    1.0000 </r>
       <r>   -6.5396    1.0000 </r>
       <r>   -6.4748    1.0000 </r>
       <r>   -6.4339    1.0000 </r>
       <r>   -6.3305    1.0000 </r>
       <r>   -6.1432    1.0000 </r>
       <r>   -6.0659    1.0000 </r>
       <r>   -5.9863    1.0000 </r>
       <r>   -5.8892    1.0000 </r>
       <r>   -5.7338    1.0000 </r>
       <r>   -5.4743    1.0000 </r>
       <r>   -5.4606    1.0000 </r>
       <r>   -5.3213    1.0000 </r>
       <r>   -5.0519    1.0000 </r>
       <r>   -4.9188    1.0000 </r>
       <r>   -4.8796    1.0000 </r>
       <r>   -4.8110    1.0000 </r>
       <r>   -4.7065    1.0000 </r>
       <r>   -4.6486    1.0000 </r>
       <r>   -4.4897    1.0000 </r>
       <r>   -4.3790    1.0000 </r>
       <r>   -4.3270    1.0000 </r>
       <r>   -4.2074    1.0000 </r>
       <r>   -4.1007    1.0000 </r>
       <r>   -4.0680    1.0000 </r>
       <r>   -4.0346    1.0000 </r>
       <r>   -3.9754    1.0000 </r>
       <r>   -3.9255    1.0000 </r>
       <r>   -3.8860    1.0000 </r>
       <r>   -3.8278    1.0000 </r>
       <r>   -3.7652    1.0000 </r>
       <r>   -3.7515    1.0000 </r>
       <r>   -3.7131    1.0000 </r>
       <r>   -3.7027    1.0000 </r>
       <r>   -3.5239    1.0000 </r>
       <r>   -3.4117    1.0000 </r>
       <r>   -3.2957    1.0000 </r>
       <r>   -3.1866    1.0000 </r>
       <r>   -3.1319    1.0000 </r>
       <r>   -2.8484    1.0000 </r>
       <r>   -2.7853    1.0000 </r>
       <r>   -2.7359    1.0000 </r>
       <r>   -2.6804    1.0000 </r>
       <r>   -2.5790    1.0000 </r>
       <r>   -2.5504    1.0000 </r>
       <r>   -2.4835    1.0000 </r>
       <r>   -2.4541    1.0000 </r>
       <r>   -2.2977    1.0000 </r>
       <r>   -2.2835    1.0000 </r>
       <r>   -2.2228    1.0000 </r>
       <r>   -2.1959    1.0000 </r>
       <r>   -2.0735    1.0000 </r>
       <r>   -1.9332    1.0000 </r>
       <r>   -1.8791    1.0000 </r>
       <r>   -1.8164    1.0000 </r>
       <r>   -1.7547    1.0000 </r>
       <r>   -1.6885    1.0000 </r>
       <r>   -1.5810    1.0000 </r>
       <r>   -1.4786    1.0000 </r>
       <r>   -1.4489    1.0000 </r>
       <r>   -1.4269    1.0000 </r>
       <r>   -1.3270    1.0002 </r>
       <r>   -1.1977    1.0032 </r>
       <r>   -1.1409    1.0087 </r>
       <r>   -1.0457    1.0278 </r>
       <r>   -0.9838    1.0352 </r>
       <r>   -0.9523    1.0280 </r>
       <r>   -0.8975    0.9780 </r>
       <r>   -0.8058    0.7403 </r>
       <r>   -0.7855    0.6628 </r>
       <r>   -0.6566    0.1597 </r>
       <r>   -0.5889    0.0135 </r>
       <r>   -0.5247   -0.0330 </r>
       <r>   -0.4516   -0.0288 </r>
       <r>   -0.1914   -0.0003 </r>
       <r>   -0.0233   -0.0000 </r>
       <r>    0.0589   -0.0000 </r>
       <r>    0.4050   -0.0000 </r>
       <r>    0.6170   -0.0000 </r>
       <r>    1.1736   -0.0000 </r>
       <r>    1.5716   -0.0000 </r>
       <r>    2.2509   -0.0000 </r>
       <r>    2.5774   -0.0000 </r>
       <r>    2.8608   -0.0000 </r>
       <r>    3.2220   -0.0000 </r>
       <r>    3.3887   -0.0000 </r>
      </set>
      <set comment="kpoint 11">
       <r>   -8.9805    1.0000 </r>
       <r>   -7.7833    1.0000 </r>
       <r>   -7.4445    1.0000 </r>
       <r>   -7.2096    1.0000 </r>
       <r>   -6.9131    1.0000 </r>
       <r>   -6.7802    1.0000 </r>
       <r>   -6.7398    1.0000 </r>
       <r>   -6.6343    1.0000 </r>
       <r>   -6.5534    1.0000 </r>
       <r>   -6.4906    1.0000 </r>
       <r>   -6.4351    1.0000 </r>
       <r>   -6.3072    1.0000 </r>
       <r>   -6.2640    1.0000 </r>
       <r>   -6.1926    1.0000 </r>
       <r>   -6.0844    1.0000 </r>
       <r>   -5.8861    1.0000 </r>
       <r>   -5.8009    1.0000 </r>
       <r>   -5.6910    1.0000 </r>
       <r>   -5.6358    1.0000 </r>
       <r>   -5.4764    1.0000 </r>
       <r>   -5.3272    1.0000 </r>
       <r>   -5.2714    1.0000 </r>
       <r>   -5.2515    1.0000 </r>
       <r>   -5.1918    1.0000 </r>
       <r>   -5.1026    1.0000 </r>
       <r>   -5.0168    1.0000 </r>
       <r>   -4.9257    1.0000 </r>
       <r>   -4.8178    1.0000 </r>
       <r>   -4.7272    1.0000 </r>
       <r>   -4.6628    1.0000 </r>
       <r>   -4.4929    1.0000 </r>
       <r>   -4.3949    1.0000 </r>
       <r>   -4.3522    1.0000 </r>
       <r>   -4.2383    1.0000 </r>
       <r>   -4.2145    1.0000 </r>
       <r>   -4.1773    1.0000 </r>
       <r>   -4.1270    1.0000 </r>
       <r>   -4.0571    1.0000 </r>
       <r>   -3.9892    1.0000 </r>
       <r>   -3.9696    1.0000 </r>
       <r>   -3.8529    1.0000 </r>
       <r>   -3.8138    1.0000 </r>
       <r>   -3.7214    1.0000 </r>
       <r>   -3.6113    1.0000 </r>
       <r>   -3.5834    1.0000 </r>
       <r>   -3.5127    1.0000 </r>
       <r>   -3.4060    1.0000 </r>
       <r>   -3.3681    1.0000 </r>
       <r>   -3.2923    1.0000 </r>
       <r>   -3.2310    1.0000 </r>
       <r>   -3.2007    1.0000 </r>
       <r>   -3.0285    1.0000 </r>
       <r>   -2.9967    1.0000 </r>
       <r>   -2.9598    1.0000 </r>
       <r>   -2.8816    1.0000 </r>
       <r>   -2.8272    1.0000 </r>
       <r>   -2.7621    1.0000 </r>
       <r>   -2.7210    1.0000 </r>
       <r>   -2.6253    1.0000 </r>
       <r>   -2.5746    1.0000 </r>
       <r>   -2.4783    1.0000 </r>
       <r>   -2.3519    1.0000 </r>
       <r>   -2.2480    1.0000 </r>
       <r>   -2.1818    1.0000 </r>
       <r>   -2.0831    1.0000 </r>
       <r>   -2.0333    1.0000 </r>
       <r>   -1.9620    1.0000 </r>
       <r>   -1.8083    1.0000 </r>
       <r>   -1.7190    1.0000 </r>
       <r>   -1.6946    1.0000 </r>
       <r>   -1.5981    1.0000 </r>
       <r>   -1.5205    1.0000 </r>
       <r>   -1.3231    1.0002 </r>
       <r>   -1.2634    1.0008 </r>
       <r>   -1.1685    1.0055 </r>
       <r>   -1.0950    1.0167 </r>
       <r>   -1.0437    1.0282 </r>
       <r>   -0.9577    1.0301 </r>
       <r>   -0.9256    1.0109 </r>
       <r>   -0.8347    0.8369 </r>
       <r>   -0.7700    0.5999 </r>
       <r>   -0.7302    0.4326 </r>
       <r>   -0.7107    0.3525 </r>
       <r>   -0.6642    0.1832 </r>
       <r>   -0.5031   -0.0354 </r>
       <r>   -0.3078   -0.0041 </r>
       <r>   -0.0417   -0.0000 </r>
       <r>    0.1457   -0.0000 </r>
       <r>    0.6037   -0.0000 </r>
       <r>    0.8787   -0.0000 </r>
       <r>    1.9489   -0.0000 </r>
       <r>    2.5967   -0.0000 </r>
       <r>    2.8483   -0.0000 </r>
       <r>    2.9802   -0.0000 </r>
       <r>    3.6106   -0.0000 </r>
       <r>    3.9286   -0.0000 </r>
      </set>
      <set comment="kpoint 12">
       <r>   -8.3075    1.0000 </r>
       <r>   -7.9565    1.0000 </r>
       <r>   -7.2712    1.0000 </r>
       <r>   -7.0715    1.0000 </r>
       <r>   -7.0324    1.0000 </r>
       <r>   -6.6266    1.0000 </r>
       <r>   -6.4772    1.0000 </r>
       <r>   -6.3541    1.0000 </r>
       <r>   -6.2664    1.0000 </r>
       <r>   -6.1752    1.0000 </r>
       <r>   -6.1636    1.0000 </r>
       <r>   -6.1285    1.0000 </r>
       <r>   -6.0360    1.0000 </r>
       <r>   -5.9452    1.0000 </r>
       <r>   -5.8395    1.0000 </r>
       <r>   -5.7390    1.0000 </r>
       <r>   -5.6879    1.0000 </r>
       <r>   -5.5914    1.0000 </r>
       <r>   -5.5410    1.0000 </r>
       <r>   -5.4157    1.0000 </r>
       <r>   -5.3415    1.0000 </r>
       <r>   -5.2886    1.0000 </r>
       <r>   -5.2178    1.0000 </r>
       <r>   -5.1400    1.0000 </r>
       <r>   -5.1068    1.0000 </r>
       <r>   -5.0882    1.0000 </r>
       <r>   -5.0168    1.0000 </r>
       <r>   -4.9470    1.0000 </r>
       <r>   -4.8020    1.0000 </r>
       <r>   -4.6689    1.0000 </r>
       <r>   -4.5479    1.0000 </r>
       <r>   -4.5045    1.0000 </r>
       <r>   -4.4442    1.0000 </r>
       <r>   -4.3979    1.0000 </r>
       <r>   -4.3573    1.0000 </r>
       <r>   -4.3129    1.0000 </r>
       <r>   -4.2483    1.0000 </r>
       <r>   -4.2066    1.0000 </r>
       <r>   -4.1439    1.0000 </r>
       <r>   -4.1046    1.0000 </r>
       <r>   -4.0237    1.0000 </r>
       <r>   -3.9506    1.0000 </r>
       <r>   -3.8356    1.0000 </r>
       <r>   -3.7816    1.0000 </r>
       <r>   -3.7195    1.0000 </r>
       <r>   -3.7035    1.0000 </r>
       <r>   -3.6680    1.0000 </r>
       <r>   -3.5498    1.0000 </r>
       <r>   -3.5195    1.0000 </r>
       <r>   -3.4519    1.0000 </r>
       <r>   -3.3255    1.0000 </r>
       <r>   -3.2859    1.0000 </r>
       <r>   -3.2435    1.0000 </r>
       <r>   -3.0464    1.0000 </r>
       <r>   -2.9609    1.0000 </r>
       <r>   -2.8662    1.0000 </r>
       <r>   -2.7982    1.0000 </r>
       <r>   -2.7554    1.0000 </r>
       <r>   -2.6345    1.0000 </r>
       <r>   -2.5820    1.0000 </r>
       <r>   -2.4422    1.0000 </r>
       <r>   -2.3751    1.0000 </r>
       <r>   -2.3039    1.0000 </r>
       <r>   -2.2602    1.0000 </r>
       <r>   -2.1552    1.0000 </r>
       <r>   -2.0705    1.0000 </r>
       <r>   -2.0204    1.0000 </r>
       <r>   -1.8708    1.0000 </r>
       <r>   -1.8466    1.0000 </r>
       <r>   -1.7678    1.0000 </r>
       <r>   -1.7410    1.0000 </r>
       <r>   -1.6429    1.0000 </r>
       <r>   -1.5469    1.0000 </r>
       <r>   -1.4863    1.0000 </r>
       <r>   -1.3747    1.0000 </r>
       <r>   -1.2621    1.0008 </r>
       <r>   -1.2343    1.0015 </r>
       <r>   -1.1502    1.0075 </r>
       <r>   -1.0519    1.0264 </r>
       <r>   -0.9629    1.0318 </r>
       <r>   -0.9153    1.0008 </r>
       <r>   -0.8966    0.9768 </r>
       <r>   -0.7314    0.4377 </r>
       <r>   -0.6906    0.2745 </r>
       <r>   -0.5915    0.0170 </r>
       <r>   -0.2396   -0.0010 </r>
       <r>   -0.2066   -0.0005 </r>
       <r>    0.0444   -0.0000 </r>
       <r>    0.6876   -0.0000 </r>
       <r>    1.1786   -0.0000 </r>
       <r>    1.6919   -0.0000 </r>
       <r>    2.5557   -0.0000 </r>
       <r>    2.9140   -0.0000 </r>
       <r>    3.2848   -0.0000 </r>
       <r>    3.9515   -0.0000 </r>
       <r>    4.2143   -0.0000 </r>
      </set>
      <set comment="kpoint 13">
       <r>   -8.6507    1.0000 </r>
       <r>   -7.6651    1.0000 </r>
       <r>   -7.5109    1.0000 </r>
       <r>   -7.1143    1.0000 </r>
       <r>   -6.9472    1.0000 </r>
       <r>   -6.6734    1.0000 </r>
       <r>   -6.5695    1.0000 </r>
       <r>   -6.4430    1.0000 </r>
       <r>   -6.3793    1.0000 </r>
       <r>   -6.3356    1.0000 </r>
       <r>   -6.2851    1.0000 </r>
       <r>   -6.2096    1.0000 </r>
       <r>   -6.1234    1.0000 </r>
       <r>   -6.0717    1.0000 </r>
       <r>   -5.9187    1.0000 </r>
       <r>   -5.7924    1.0000 </r>
       <r>   -5.7425    1.0000 </r>
       <r>   -5.5683    1.0000 </r>
       <r>   -5.5081    1.0000 </r>
       <r>   -5.4454    1.0000 </r>
       <r>   -5.3258    1.0000 </r>
       <r>   -5.2788    1.0000 </r>
       <r>   -5.2193    1.0000 </r>
       <r>   -5.1585    1.0000 </r>
       <r>   -5.1255    1.0000 </r>
       <r>   -5.0582    1.0000 </r>
       <r>   -4.9794    1.0000 </r>
       <r>   -4.8899    1.0000 </r>
       <r>   -4.8334    1.0000 </r>
       <r>   -4.7143    1.0000 </r>
       <r>   -4.5588    1.0000 </r>
       <r>   -4.4771    1.0000 </r>
       <r>   -4.4182    1.0000 </r>
       <r>   -4.3376    1.0000 </r>
       <r>   -4.3133    1.0000 </r>
       <r>   -4.2578    1.0000 </r>
       <r>   -4.1607    1.0000 </r>
       <r>   -4.0504    1.0000 </r>
       <r>   -4.0343    1.0000 </r>
       <r>   -3.9900    1.0000 </r>
       <r>   -3.9086    1.0000 </r>
       <r>   -3.8477    1.0000 </r>
       <r>   -3.8170    1.0000 </r>
       <r>   -3.7661    1.0000 </r>
       <r>   -3.7333    1.0000 </r>
       <r>   -3.6787    1.0000 </r>
       <r>   -3.6014    1.0000 </r>
       <r>   -3.5038    1.0000 </r>
       <r>   -3.4288    1.0000 </r>
       <r>   -3.3013    1.0000 </r>
       <r>   -3.2737    1.0000 </r>
       <r>   -3.2032    1.0000 </r>
       <r>   -3.1241    1.0000 </r>
       <r>   -3.0596    1.0000 </r>
       <r>   -2.9570    1.0000 </r>
       <r>   -2.8562    1.0000 </r>
       <r>   -2.8344    1.0000 </r>
       <r>   -2.7291    1.0000 </r>
       <r>   -2.6821    1.0000 </r>
       <r>   -2.5378    1.0000 </r>
       <r>   -2.4635    1.0000 </r>
[...]
       <r>   -4.2464    1.0000 </r>
       <r>   -4.1421    1.0000 </r>
       <r>   -4.0998    1.0000 </r>
       <r>   -4.0582    1.0000 </r>
       <r>   -4.0109    1.0000 </r>
       <r>   -3.9544    1.0000 </r>
       <r>   -3.9134    1.0000 </r>
       <r>   -3.7698    1.0000 </r>
       <r>   -3.6850    1.0000 </r>
       <r>   -3.6693    1.0000 </r>
       <r>   -3.6520    1.0000 </r>
       <r>   -3.6400    1.0000 </r>
       <r>   -3.5524    1.0000 </r>
       <r>   -3.5393    1.0000 </r>
       <r>   -3.4983    1.0000 </r>
       <r>   -3.3579    1.0000 </r>
       <r>   -3.2974    1.0000 </r>
       <r>   -3.2631    1.0000 </r>
       <r>   -3.1277    1.0000 </r>
       <r>   -2.9670    1.0000 </r>
       <r>   -2.8391    1.0000 </r>
       <r>   -2.7904    1.0000 </r>
       <r>   -2.7591    1.0000 </r>
       <r>   -2.6239    1.0000 </r>
       <r>   -2.5754    1.0000 </r>
       <r>   -2.5142    1.0000 </r>
       <r>   -2.4214    1.0000 </r>
       <r>   -2.3105    1.0000 </r>
       <r>   -2.2564    1.0000 </r>
       <r>   -2.2135    1.0000 </r>
       <r>   -2.1433    1.0000 </r>
       <r>   -2.0789    1.0000 </r>
       <r>   -2.0315    1.0000 </r>
       <r>   -1.9189    1.0000 </r>
       <r>   -1.8495    1.0000 </r>
       <r>   -1.8273    1.0000 </r>
       <r>   -1.7629    1.0000 </r>
       <r>   -1.7321    1.0000 </r>
       <r>   -1.5266    1.0000 </r>
       <r>   -1.3800    1.0000 </r>
       <r>   -1.3637    1.0001 </r>
       <r>   -1.2688    1.0007 </r>
       <r>   -1.0871    1.0184 </r>
       <r>   -1.0145    1.0337 </r>
       <r>   -0.8937    0.9722 </r>
       <r>   -0.8377    0.8459 </r>
       <r>   -0.7874    0.6702 </r>
       <r>   -0.6458    0.1287 </r>
       <r>   -0.5871    0.0112 </r>
       <r>   -0.5396   -0.0282 </r>
       <r>   -0.3371   -0.0069 </r>
       <r>    0.2390   -0.0000 </r>
       <r>    0.5668   -0.0000 </r>
       <r>    0.8740   -0.0000 </r>
       <r>    1.5370   -0.0000 </r>
       <r>    1.5789   -0.0000 </r>
       <r>    2.3740   -0.0000 </r>
       <r>    2.7175   -0.0000 </r>
       <r>    3.2629   -0.0000 </r>
       <r>    3.5752   -0.0000 </r>
       <r>    4.0418   -0.0000 </r>
      </set>
     </set>
    </set>
   </array>
  </eigenvalues>
  <separator name="orbital magnetization" >
   <v name="MAGDIPOLOUT">      0.00000000      0.00000000      0.00000000</v>
  </separator>
  <dos>
   <i name="efermi">     -0.74619607 </i>
   <total>
    <array>
     <dimension dim="1">gridpoints</dimension>
     <dimension dim="2">spin</dimension>
     <field>energy</field>
     <field>total</field>
     <field>integrated</field>
     <set>
      <set comment="spin 1">
       <r>   -12.1170     0.0000     0.0000 </r>
       <r>   -12.0551     0.0000     0.0000 </r>
       <r>   -11.9933     0.0000     0.0000 </r>
       <r>   -11.9314     0.0000     0.0000 </r>
       <r>   -11.8696     0.0000     0.0000 </r>
       <r>   -11.8077     0.0000     0.0000 </r>
       <r>   -11.7459    -0.0000    -0.0000 </r>
       <r>   -11.6840    -0.0000    -0.0000 </r>
       <r>   -11.6222    -0.0000    -0.0000 </r>
       <r>   -11.5604    -0.0000    -0.0000 </r>
       <r>   -11.4985    -0.0000    -0.0000 </r>
       <r>   -11.4367    -0.0000    -0.0000 </r>
       <r>   -11.3748    -0.0000    -0.0000 </r>
       <r>   -11.3130    -0.0000    -0.0000 </r>
       <r>   -11.2511    -0.0000    -0.0000 </r>
       <r>   -11.1893    -0.0000    -0.0000 </r>
       <r>   -11.1274    -0.0000    -0.0000 </r>
       <r>   -11.0656    -0.0000    -0.0000 </r>
       <r>   -11.0037    -0.0000    -0.0000 </r>
       <r>   -10.9419    -0.0000    -0.0000 </r>
       <r>   -10.8801    -0.0000    -0.0000 </r>
       <r>   -10.8182    -0.0000    -0.0000 </r>
       <r>   -10.7564    -0.0000    -0.0000 </r>
       <r>   -10.6945    -0.0002    -0.0000 </r>
       <r>   -10.6327    -0.0008    -0.0001 </r>
       <r>   -10.5708    -0.0029    -0.0002 </r>
       <r>   -10.5090    -0.0083    -0.0007 </r>
       <r>   -10.4471    -0.0183    -0.0019 </r>
       <r>   -10.3853    -0.0279    -0.0036 </r>
       <r>   -10.3234    -0.0191    -0.0048 </r>
       <r>   -10.2616     0.0378    -0.0025 </r>
       <r>   -10.1998     0.1633     0.0076 </r>
       <r>   -10.1379     0.3460     0.0290 </r>
       <r>   -10.0761     0.5459     0.0628 </r>
       <r>   -10.0142     0.7240     0.1076 </r>
       <r>    -9.9524     0.8584     0.1607 </r>
       <r>    -9.8905     0.9316     0.2183 </r>
       <r>    -9.8287     0.9284     0.2757 </r>
       <r>    -9.7668     0.8593     0.3289 </r>
       <r>    -9.7050     0.7762     0.3769 </r>
       <r>    -9.6431     0.7551     0.4236 </r>
       <r>    -9.5813     0.8408     0.4756 </r>
       <r>    -9.5195     0.9902     0.5368 </r>
       <r>    -9.4576     1.0918     0.6043 </r>
       <r>    -9.3958     1.0701     0.6705 </r>
       <r>    -9.3339     0.9566     0.7297 </r>
       <r>    -9.2721     0.8367     0.7814 </r>
       <r>    -9.2102     0.7598     0.8284 </r>
       <r>    -9.1484     0.7370     0.8740 </r>
       <r>    -9.0865     0.7971     0.9233 </r>
       <r>    -9.0247     0.9813     0.9840 </r>
       <r>    -8.9628     1.2669     1.0623 </r>
       <r>    -8.9010     1.5469     1.1580 </r>
       <r>    -8.8392     1.7247     1.2646 </r>
       <r>    -8.7773     1.8042     1.3762 </r>
       <r>    -8.7155     1.8488     1.4906 </r>
       <r>    -8.6536     1.8751     1.6065 </r>
       <r>    -8.5918     1.8472     1.7208 </r>
       <r>    -8.5299     1.7773     1.8307 </r>
       <r>    -8.4681     1.7729     1.9403 </r>
       <r>    -8.4062     1.9451     2.0606 </r>
       <r>    -8.3444     2.2742     2.2013 </r>
       <r>    -8.2825     2.5866     2.3613 </r>
       <r>    -8.2207     2.6937     2.5278 </r>
       <r>    -8.1589     2.5661     2.6865 </r>
       <r>    -8.0970     2.3437     2.8315 </r>
       <r>    -8.0352     2.1719     2.9658 </r>
       <r>    -7.9733     2.0895     3.0950 </r>
       <r>    -7.9115     2.1186     3.2261 </r>
       <r>    -7.8496     2.3938     3.3741 </r>
       <r>    -7.7878     3.0755     3.5643 </r>
       <r>    -7.7259     4.1130     3.8187 </r>
       <r>    -7.6641     5.2111     4.1410 </r>
       <r>    -7.6022     6.1229     4.5197 </r>
       <r>    -7.5404     6.8975     4.9462 </r>
       <r>    -7.4786     7.7530     5.4257 </r>
       <r>    -7.4167     8.8007     5.9700 </r>
       <r>    -7.3549    10.0116     6.5892 </r>
       <r>    -7.2930    11.3284     7.2898 </r>
       <r>    -7.2312    12.6319     8.0710 </r>
       <r>    -7.1693    13.6573     8.9157 </r>
       <r>    -7.1075    14.1132     9.7885 </r>
       <r>    -7.0456    13.9296    10.6500 </r>
       <r>    -6.9838    13.3843    11.4777 </r>
       <r>    -6.9219    13.0018    12.2818 </r>
       <r>    -6.8601    13.2801    13.1032 </r>
       <r>    -6.7983    14.4025    13.9939 </r>
       <r>    -6.7364    16.1524    14.9928 </r>
       <r>    -6.6746    18.1402    16.1147 </r>
       <r>    -6.6127    20.0981    17.3577 </r>
       <r>    -6.5509    21.8884    18.7114 </r>
       <r>    -6.4890    23.3067    20.1528 </r>
       <r>    -6.4272    24.1073    21.6437 </r>
       <r>    -6.3653    24.2673    23.1446 </r>
       <r>    -6.3035    24.0443    24.6316 </r>
       <r>    -6.2416    23.6827    26.0963 </r>
       <r>    -6.1798    23.1548    27.5283 </r>
       <r>    -6.1180    22.2503    28.9044 </r>
       <r>    -6.0561    20.8729    30.1953 </r>
       <r>    -5.9943    19.1973    31.3825 </r>
       <r>    -5.9324    17.5437    32.4675 </r>
       <r>    -5.8706    16.1701    33.4676 </r>
       <r>    -5.8087    15.2456    34.4105 </r>
       <r>    -5.7469    14.9352    35.3341 </r>
       <r>    -5.6850    15.3357    36.2826 </r>
       <r>    -5.6232    16.3131    37.2915 </r>
       <r>    -5.5613    17.5541    38.3771 </r>
       <r>    -5.4995    18.8206    39.5411 </r>
       <r>    -5.4377    20.0399    40.7805 </r>
       <r>    -5.3758    21.1062    42.0858 </r>
       <r>    -5.3140    21.7432    43.4305 </r>
       <r>    -5.2521    21.7158    44.7735 </r>
       <r>    -5.1903    21.1636    46.0824 </r>
       <r>    -5.1284    20.6005    47.3564 </r>
       <r>    -5.0666    20.5520    48.6275 </r>
       <r>    -5.0047    21.1883    49.9379 </r>
       <r>    -4.9429    22.1617    51.3085 </r>
       <r>    -4.8810    22.7154    52.7133 </r>
       <r>    -4.8192    22.2166    54.0873 </r>
       <r>    -4.7574    20.8796    55.3787 </r>
       <r>    -4.6955    19.8456    56.6060 </r>
       <r>    -4.6337    20.2690    57.8596 </r>
       <r>    -4.5718    22.3047    59.2390 </r>
       <r>    -4.5100    25.0516    60.7883 </r>
       <r>    -4.4481    27.3166    62.4777 </r>
       <r>    -4.3863    28.3399    64.2304 </r>
       <r>    -4.3244    28.1251    65.9699 </r>
       <r>    -4.2626    27.4633    67.6683 </r>
       <r>    -4.2007    27.4771    69.3677 </r>
       <r>    -4.1389    28.6930    71.1422 </r>
       <r>    -4.0771    30.4916    73.0280 </r>
       <r>    -4.0152    31.7444    74.9912 </r>
       <r>    -3.9534    32.0438    76.9730 </r>
       <r>    -3.8915    32.0625    78.9559 </r>
       <r>    -3.8297    32.6226    80.9735 </r>
       <r>    -3.7678    33.6696    83.0558 </r>
       <r>    -3.7060    34.3650    85.1811 </r>
       <r>    -3.6441    34.0035    87.2841 </r>
       <r>    -3.5823    32.5724    89.2985 </r>
       <r>    -3.5204    30.5524    91.1880 </r>
       <r>    -3.4586    28.5282    92.9524 </r>
       <r>    -3.3968    26.9299    94.6179 </r>
       <r>    -3.3349    25.7310    96.2092 </r>
       <r>    -3.2731    24.3296    97.7139 </r>
       <r>    -3.2112    22.1171    99.0817 </r>
       <r>    -3.1494    19.3551   100.2788 </r>
       <r>    -3.0875    17.2804   101.3475 </r>
       <r>    -3.0257    17.1784   102.4099 </r>
       <r>    -2.9638    19.3735   103.6080 </r>
       <r>    -2.9020    23.0083   105.0310 </r>
       <r>    -2.8401    26.5616   106.6737 </r>
       <r>    -2.7783    28.6369   108.4448 </r>
       <r>    -2.7164    28.6516   110.2168 </r>
       <r>    -2.6546    27.0644   111.8906 </r>
       <r>    -2.5928    24.9440   113.4332 </r>
       <r>    -2.5309    23.2315   114.8700 </r>
       <r>    -2.4691    22.3223   116.2505 </r>
       <r>    -2.4072    22.1614   117.6211 </r>
       <r>    -2.3454    22.5111   119.0133 </r>
       <r>    -2.2835    23.0677   120.4400 </r>
       <r>    -2.2217    23.5139   121.8942 </r>
       <r>    -2.1598    23.7139   123.3608 </r>
       <r>    -2.0980    23.9031   124.8391 </r>
       <r>    -2.0361    24.5366   126.3566 </r>
       <r>    -1.9743    25.8393   127.9546 </r>
       <r>    -1.9125    27.5017   129.6555 </r>
       <r>    -1.8506    28.8125   131.4374 </r>
       <r>    -1.7888    29.0894   133.2364 </r>
       <r>    -1.7269    28.0927   134.9738 </r>
       <r>    -1.6651    26.1830   136.5931 </r>
       <r>    -1.6032    24.0918   138.0831 </r>
       <r>    -1.5414    22.4530   139.4717 </r>
       <r>    -1.4795    21.5404   140.8039 </r>
       <r>    -1.4177    21.4050   142.1277 </r>
       <r>    -1.3558    22.0223   143.4897 </r>
       <r>    -1.2940    23.1851   144.9236 </r>
       <r>    -1.2322    24.5167   146.4398 </r>
       <r>    -1.1703    25.8525   148.0387 </r>
       <r>    -1.1085    27.4320   149.7352 </r>
       <r>    -1.0466    29.4152   151.5544 </r>
       <r>    -0.9848    31.3316   153.4922 </r>
       <r>    -0.9229    32.3781   155.4946 </r>
       <r>    -0.8611    32.2385   157.4884 </r>
       <r>    -0.7992    31.2324   159.4200 </r>
       <r>    -0.7374    29.6475   161.2536 </r>
       <r>    -0.6755    27.4215   162.9495 </r>
       <r>    -0.6137    24.6477   164.4738 </r>
       <r>    -0.5519    21.8621   165.8259 </r>
       <r>    -0.4900    19.4589   167.0293 </r>
       <r>    -0.4282    17.1966   168.0929 </r>
       <r>    -0.3663    14.6779   169.0006 </r>
       <r>    -0.3045    12.0747   169.7474 </r>
       <r>    -0.2426    10.0158   170.3668 </r>
       <r>    -0.1808     8.8594   170.9147 </r>
       <r>    -0.1189     8.3275   171.4297 </r>
       <r>    -0.0571     7.8360   171.9144 </r>
       <r>     0.0048     7.0356   172.3495 </r>
       <r>     0.0666     6.0206   172.7218 </r>
       <r>     0.1284     5.1062   173.0376 </r>
       <r>     0.1903     4.4958   173.3157 </r>
       <r>     0.2521     4.1814   173.5743 </r>
       <r>     0.3140     4.0841   173.8269 </r>
       <r>     0.3758     4.1959   174.0864 </r>
       <r>     0.4377     4.5925   174.3704 </r>
       <r>     0.4995     5.3312   174.7001 </r>
       <r>     0.5614     6.2693   175.0878 </r>
       <r>     0.6232     6.9788   175.5194 </r>
       <r>     0.6851     7.0003   175.9524 </r>
       <r>     0.7469     6.2851   176.3411 </r>
       <r>     0.8087     5.2888   176.6682 </r>
       <r>     0.8706     4.5695   176.9508 </r>
       <r>     0.9324     4.3885   177.2222 </r>
       <r>     0.9943     4.6831   177.5118 </r>
       <r>     1.0561     5.2102   177.8340 </r>
       <r>     1.1180     5.6159   178.1813 </r>
       <r>     1.1798     5.5500   178.5246 </r>
       <r>     1.2417     4.9113   178.8283 </r>
       <r>     1.3035     3.9959   179.0755 </r>
       <r>     1.3654     3.3449   179.2823 </r>
       <r>     1.4272     3.3986   179.4925 </r>
       <r>     1.4890     4.1903   179.7517 </r>
       <r>     1.5509     5.2892   180.0788 </r>
       <r>     1.6127     6.1227   180.4574 </r>
       <r>     1.6746     6.4640   180.8572 </r>
       <r>     1.7364     6.5235   181.2607 </r>
       <r>     1.7983     6.5000   181.6627 </r>
       <r>     1.8601     6.2382   182.0485 </r>
       <r>     1.9220     5.5091   182.3892 </r>
       <r>     1.9838     4.4770   182.6661 </r>
       <r>     2.0457     3.6557   182.8921 </r>
       <r>     2.1075     3.4188   183.1036 </r>
       <r>     2.1693     3.6975   183.3323 </r>
       <r>     2.2312     4.1612   183.5896 </r>
       <r>     2.2930     4.5924   183.8736 </r>
       <r>     2.3549     5.0528   184.1861 </r>
       <r>     2.4167     5.7190   184.5398 </r>
       <r>     2.4786     6.5458   184.9446 </r>
       <r>     2.5404     7.1152   185.3847 </r>
       <r>     2.6023     6.9579   185.8150 </r>
       <r>     2.6641     6.0885   186.1915 </r>
       <r>     2.7260     5.0759   186.5055 </r>
       <r>     2.7878     4.4829   186.7827 </r>
       <r>     2.8496     4.3494   187.0517 </r>
       <r>     2.9115     4.3116   187.3184 </r>
       <r>     2.9733     4.1105   187.5726 </r>
       <r>     3.0352     3.8617   187.8114 </r>
       <r>     3.0970     3.8534   188.0497 </r>
       <r>     3.1589     4.1535   188.3066 </r>
       <r>     3.2207     4.4718   188.5832 </r>
       <r>     3.2826     4.4482   188.8583 </r>
       <r>     3.3444     4.0405   189.1081 </r>
       <r>     3.4063     3.5394   189.3270 </r>
       <r>     3.4681     3.2157   189.5259 </r>
       <r>     3.5299     3.0715   189.7159 </r>
       <r>     3.5918     2.9573   189.8988 </r>
       <r>     3.6536     2.8107   190.0726 </r>
       <r>     3.7155     2.7207   190.2409 </r>
       <r>     3.7773     2.8145   190.4149 </r>
       <r>     3.8392     3.1099   190.6073 </r>
       <r>     3.9010     3.4488   190.8206 </r>
       <r>     3.9629     3.5890   191.0425 </r>
       <r>     4.0247     3.4015   191.2529 </r>
       <r>     4.0866     2.9742   191.4368 </r>
       <r>     4.1484     2.5010   191.5915 </r>
       <r>     4.2102     2.0891   191.7207 </r>
       <r>     4.2721     1.7034   191.8260 </r>
       <r>     4.3339     1.2818   191.9053 </r>
       <r>     4.3958     0.8457   191.9576 </r>
       <r>     4.4576     0.4751   191.9870 </r>
       <r>     4.5195     0.2197   192.0006 </r>
       <r>     4.5813     0.0709   192.0050 </r>
       <r>     4.6432    -0.0022   192.0048 </r>
       <r>     4.7050    -0.0270   192.0032 </r>
       <r>     4.7669    -0.0255   192.0016 </r>
       <r>     4.8287    -0.0155   192.0006 </r>
       <r>     4.8905    -0.0070   192.0002 </r>
       <r>     4.9524    -0.0024   192.0001 </r>
       <r>     5.0142    -0.0007   192.0000 </r>
       <r>     5.0761    -0.0001   192.0000 </r>
       <r>     5.1379    -0.0000   192.0000 </r>
       <r>     5.1998    -0.0000   192.0000 </r>
       <r>     5.2616    -0.0000   192.0000 </r>
       <r>     5.3235    -0.0000   192.0000 </r>
       <r>     5.3853    -0.0000   192.0000 </r>
       <r>     5.4472    -0.0000   192.0000 </r>
       <r>     5.5090    -0.0000   192.0000 </r>
       <r>     5.5708    -0.0000   192.0000 </r>
       <r>     5.6327    -0.0000   192.0000 </r>
       <r>     5.6945    -0.0000   192.0000 </r>
       <r>     5.7564     0.0000   192.0000 </r>
       <r>     5.8182     0.0000   192.0000 </r>
       <r>     5.8801     0.0000   192.0000 </r>
       <r>     5.9419     0.0000   192.0000 </r>
       <r>     6.0038     0.0000   192.0000 </r>
       <r>     6.0656     0.0000   192.0000 </r>
       <r>     6.1275     0.0000   192.0000 </r>
       <r>     6.1893     0.0000   192.0000 </r>
       <r>     6.2511     0.0000   192.0000 </r>
       <r>     6.3130     0.0000   192.0000 </r>
       <r>     6.3748     0.0000   192.0000 </r>
       <r>     6.4367     0.0000   192.0000 </r>
      </set>
     </set>
    </array>
   </total>
  </dos>
 </calculation>
 <structure name="finalpos" >
  <crystal>
   <varray name="basis" >
    <v>       5.55785930       0.00000000       0.00000000 </v>
    <v>       2.77892965       4.81324734       0.00000000 </v>
    <v>       0.00000000       0.00000000      30.80695967 </v>
   </varray>
   <i name="volume">    824.12780743 </i>
   <varray name="rec_basis" >
    <v>       0.17992539      -0.10387997       0.00000000 </v>
    <v>       0.00000000       0.20775994       0.00000000 </v>
    <v>       0.00000000       0.00000000       0.03246020 </v>
   </varray>
  </crystal>
  <varray name="positions" >
   <v>       0.00000000       0.00000000       0.38952237 </v>
   <v>       0.50000000       0.00000000       0.38952237 </v>
   <v>       0.00000000       0.50000000       0.38952237 </v>
   <v>       0.50000000       0.50000000       0.38952237 </v>
   <v>       0.16652883       0.16652883       0.46542487 </v>
   <v>       0.66694234       0.16652883       0.46542487 </v>
   <v>       0.16652883       0.66694234       0.46542487 </v>
   <v>       0.66666667       0.66666667       0.46426737 </v>
   <v>       0.83396869       0.33206261       0.54005199 </v>
   <v>       0.83396869       0.83396869       0.54005199 </v>
   <v>       0.33206261       0.83396869       0.54005199 </v>
   <v>       0.00000000       0.00000000       0.61904352 </v>
   <v>       0.50048728       0.99902544       0.61498914 </v>
   <v>       0.99902544       0.50048728       0.61498914 </v>
   <v>       0.50048728       0.50048728       0.61498914 </v>
   <v>       0.33333333       0.33333333       0.53994492 </v>
   <v>       0.00000000       0.00000000       0.66953436 </v>
  </varray>
  <varray name="selective"  type="logical" >
   <v type="logical" >  F  F  F </v>
   <v type="logical" >  F  F  F </v>
   <v type="logical" >  F  F  F </v>
   <v type="logical" >  F  F  F </v>
   <v type="logical" >  T  T  T </v>
   <v type="logical" >  T  T  T </v>
   <v type="logical" >  T  T  T </v>
   <v type="logical" >  T  T  T </v>
   <v type="logical" >  T  T  T </v>
   <v type="logical" >  T  T  T </v>
   <v type="logical" >  T  T  T </v>
   <v type="logical" >  T  T  T </v>
   <v type="logical" >  T  T  T </v>
   <v type="logical" >  T  T  T </v>
   <v type="logical" >  T  T  T </v>
   <v type="logical" >  T  T  T </v>
   <v type="logical" >  T  T  T </v>
  </varray>
  <nose>
   <v>      -3.00000000       0.00000000       0.00010000       0.00010000 </v>
  </nose>
 </structure>
</modeling>
