unknown system                          
           1
     5.557859    0.000000    0.000000
     2.778930    4.813247    0.000000
     0.000000    0.000000   30.806960
   Ir   Pt   Au   H 
   1  14   1   1
Direct configuration=     1
   0.00000000  0.00000000  0.38952237
   0.50000000  0.00000000  0.38952237
   0.00000000  0.50000000  0.38952237
   0.50000000  0.50000000  0.38952237
   0.16652883  0.16652883  0.46542487
   0.66694234  0.16652883  0.46542487
   0.16652883  0.66694234  0.46542487
   0.66666667  0.66666667  0.46426737
   0.33333333  0.33333333  0.53994492
   0.83396869  0.83396869  0.54005199
   0.33206261  0.83396869  0.54005199
   0.00000000  0.00000000  0.61904352
   0.50048728  0.99902544  0.61498914
   0.99902544  0.50048728  0.61498914
   0.50048728  0.50048728  0.61498914
   0.83396869  0.33206261  0.54005199
   0.00000000  0.00000000  0.66953436
