 vasp.5.4.4.18Apr17-6-g9f103f2a35 (build Apr 28 2017 10:53:45) complex          
  
 executed on             LinuxIFC date 2020.02.17  09:19:52
 running on   24 total cores
 distrk:  each k-point on   24 cores,    1 groups
 distr:  one band on NCORES_PER_BAND=   1 cores,   24 groups


--------------------------------------------------------------------------------------------------------


 INCAR:
 POTCAR:    PAW_PBE Au 04Oct2007                  
 POTCAR:    PAW_PBE Pt 04Feb2005                  
 POTCAR:    PAW_PBE Ir 06Sep2000                  
 POTCAR:    PAW_PBE H 15Jun2001                   

 ----------------------------------------------------------------------------- 
|                                                                             |
|           W    W    AA    RRRRR   N    N  II  N    N   GGGG   !!!           |
|           W    W   A  A   R    R  NN   N  II  NN   N  G    G  !!!           |
|           W    W  A    A  R    R  N N  N  II  N N  N  G       !!!           |
|           W WW W  AAAAAA  RRRRR   N  N N  II  N  N N  G  GGG   !            |
|           WW  WW  A    A  R   R   N   NN  II  N   NN  G    G                |
|           W    W  A    A  R    R  N    N  II  N    N   GGGG   !!!           |
|                                                                             |
|      For optimal performance we recommend to set                            |
|        NCORE= 4 - approx SQRT( number of cores)                             |
|      NCORE specifies how many cores store one orbital (NPAR=cpu/NCORE).     |
|      This setting can  greatly improve the performance of VASP for DFT.     |
|      The default,   NCORE=1            might be grossly inefficient         |
|      on modern multi-core architectures or massively parallel machines.     |
|      Do your own testing !!!!                                               |
|      Unfortunately you need to use the default for GW and RPA calculations. |
|      (for HF NCORE is supported but not extensively tested yet)             |
|                                                                             |
 ----------------------------------------------------------------------------- 

 POTCAR:    PAW_PBE Au 04Oct2007                  
   SHA256 =  d0044ae04e2bdce24051b198fc5c053d722a5bc6fe3c3b100514a13fc5d2db88 Au
   COPYR  = (c) Copyright 04Oct2007 Georg Kresse                                
   COPYR  = This file is part of the software VASP. Any use, copying, and all ot
   COPYR  = If you do not have a valid VASP license, you may not use, copy or di
   VRHFIN =Au: s1d10                                                            
   LEXCH  = PE                                                                  
   EATOM  =   926.0867 eV,   68.0654 Ry                                         
                                                                                
   TITEL  = PAW_PBE Au 04Oct2007                                                
   LULTRA =        F    use ultrasoft PP ?                                      
   IUNSCR =        1    unscreen: 0-lin 1-nonlin 2-no                           
   RPACOR =    2.330    partial core radius                                     
   POMASS =  196.966; ZVAL   =   11.000    mass and valenz                      
   RCORE  =    2.500    outmost cutoff radius                                   
   RWIGS  =    2.840; RWIGS  =    1.503    wigner-seitz radius (au A)           
   ENMAX  =  229.943; ENMIN  =  172.457 eV                                      
   ICORE  =        3    local potential                                         
   LCOR   =        T    correct aug charges                                     
   LPAW   =        T    paw PP                                                  
   EAUG   =  356.670                                                            
   DEXC   =    0.000                                                            
   RMAX   =    2.562    core radius for proj-oper                               
   RAUG   =    1.300    factor for augmentation sphere                          
   RDEP   =    2.598    radius for radial grids                                 
   RDEPT  =    2.193    core radius for aug-charge                              
                                                                                
   Atomic configuration                                                         
   16 entries                                                                   
     n  l   j            E        occ.                                          
     1  0  0.50    -80748.5001   2.0000                                         
     2  0  0.50    -14244.7466   2.0000                                         
     2  1  1.50    -12310.9591   6.0000                                         
     3  0  0.50     -3362.1768   2.0000                                         
     3  1  1.50     -2801.5463   6.0000                                         
     3  2  2.50     -2203.8206  10.0000                                         
     4  0  0.50      -729.8168   2.0000                                         
     4  1  1.50      -546.0527   6.0000                                         
     4  2  2.50      -325.7302  10.0000                                         
     4  3  3.50       -81.1472  14.0000                                         
     5  0  0.50      -108.3201   2.0000                                         
     5  1  1.50       -59.7479   6.0000                                         
     5  2  2.50        -6.8783  10.0000                                         
     6  0  0.50        -5.7602   1.0000                                         
     6  1  1.50        -6.8029   0.0000                                         
     5  3  2.50        -1.3606   0.0000                                         
   Description                                                                  
     l       E           TYP  RCUT    TYP  RCUT                                 
     2     -6.8782861     23  2.500                                             
     2     -8.2388687     23  2.500                                             
     0     -5.7601759     23  2.500                                             
     0     -0.8493231     23  2.500                                             
     1     -2.7211652     23  2.500                                             
     1     27.2116520     23  2.500                                             
     3     -1.3605826     23  2.500                                             
  local pseudopotential read in
  partial core-charges read in
  partial kinetic energy density read in
  atomic valenz-charges read in
  non local Contribution for L=           2  read in
    real space projection operators read in
  non local Contribution for L=           2  read in
    real space projection operators read in
  non local Contribution for L=           0  read in
    real space projection operators read in
  non local Contribution for L=           0  read in
    real space projection operators read in
  non local Contribution for L=           1  read in
    real space projection operators read in
  non local Contribution for L=           1  read in
    real space projection operators read in
    PAW grid and wavefunctions read in
 
   number of l-projection  operators is LMAX  =           6
   number of lm-projection operators is LMMAX =          18
 
 POTCAR:    PAW_PBE Pt 04Feb2005                  
   SHA256 =  3ed90460adef76debcff1cfb73ee1349b515b1a3db03439735b44de3a8db7dc8 Pt
   COPYR  = (c) Copyright 04Feb2005 Georg Kresse                                
   COPYR  = This file is part of the software VASP. Any use, copying, and all ot
   COPYR  = If you do not have a valid VASP license, you may not use, copy or di
   VRHFIN =Pt: s1d9                                                             
   LEXCH  = PE                                                                  
   EATOM  =   729.1176 eV,   53.5886 Ry                                         
                                                                                
   TITEL  = PAW_PBE Pt 04Feb2005                                                
   LULTRA =        F    use ultrasoft PP ?                                      
   IUNSCR =        1    unscreen: 0-lin 1-nonlin 2-no                           
   RPACOR =    2.330    partial core radius                                     
   POMASS =  195.080; ZVAL   =   10.000    mass and valenz                      
   RCORE  =    2.600    outmost cutoff radius                                   
   RWIGS  =    2.750; RWIGS  =    1.455    wigner-seitz radius (au A)           
   ENMAX  =  230.283; ENMIN  =  172.712 eV                                      
   ICORE  =        3    local potential                                         
   LCOR   =        T    correct aug charges                                     
   LPAW   =        T    paw PP                                                  
   EAUG   =  358.966                                                            
   DEXC   =    0.000                                                            
   RMAX   =    2.658    core radius for proj-oper                               
   RAUG   =    1.300    factor for augmentation sphere                          
   RDEP   =    2.761    radius for radial grids                                 
   RDEPT  =    2.203    core radius for aug-charge                              
                                                                                
   Atomic configuration                                                         
   16 entries                                                                   
     n  l   j            E        occ.                                          
     1  0  0.50    -78401.1885   2.0000                                         
     2  0  0.50    -13770.7750   2.0000                                         
     2  1  1.50    -11931.0468   6.0000                                         
     3  0  0.50     -3234.7234   2.0000                                         
     3  1  1.50     -2699.2216   6.0000                                         
     3  2  2.50     -2119.5714  10.0000                                         
     4  0  0.50      -695.1528   2.0000                                         
     4  1  1.50      -519.6034   6.0000                                         
     4  2  2.50      -306.6786  10.0000                                         
     4  3  3.50       -70.1041  14.0000                                         
     5  0  0.50      -101.7747   2.0000                                         
     5  1  1.50       -55.9873   6.0000                                         
     5  2  2.50        -6.1423   9.0000                                         
     6  0  0.50        -5.6573   1.0000                                         
     6  1  1.50        -6.8029   0.0000                                         
     5  3  2.50        -1.3606   0.0000                                         
   Description                                                                  
     l       E           TYP  RCUT    TYP  RCUT                                 
     2     -6.1423404     23  2.500                                             
     2     -7.5029230     23  2.500                                             
     0     -5.6573207     23  2.500                                             
     0      0.7416693     23  2.500                                             
     1     -2.7211652     23  2.600                                             
     1     20.4087390     23  2.600                                             
     3     -1.3605826     23  2.500                                             
  local pseudopotential read in
  partial core-charges read in
  partial kinetic energy density read in
  atomic valenz-charges read in
  non local Contribution for L=           2  read in
    real space projection operators read in
  non local Contribution for L=           2  read in
    real space projection operators read in
  non local Contribution for L=           0  read in
    real space projection operators read in
  non local Contribution for L=           0  read in
    real space projection operators read in
  non local Contribution for L=           1  read in
    real space projection operators read in
  non local Contribution for L=           1  read in
    real space projection operators read in
    PAW grid and wavefunctions read in
 
   number of l-projection  operators is LMAX  =           6
   number of lm-projection operators is LMMAX =          18
 
 POTCAR:    PAW_PBE Ir 06Sep2000                  
   SHA256 =  7c6af8d4d487b237782eb51e6f62977b27a1da78c3c96acd1cebefd6c308f120 Ir
   COPYR  = (c) Copyright 06Sep2000 Georg Kresse                                
   COPYR  = This file is part of the software VASP. Any use, copying, and all ot
   COPYR  = If you do not have a valid VASP license, you may not use, copy or di
   VRHFIN =Ir: s1d8                                                             
   LEXCH  = PE                                                                  
   EATOM  =   560.1833 eV,   41.1723 Ry                                         
                                                                                
   TITEL  = PAW_PBE Ir 06Sep2000                                                
   LULTRA =        F    use ultrasoft PP ?                                      
   IUNSCR =        1    unscreen: 0-lin 1-nonlin 2-no                           
   RPACOR =    2.250    partial core radius                                     
   POMASS =  192.220; ZVAL   =    9.000    mass and valenz                      
   RCORE  =    2.600    outmost cutoff radius                                   
   RWIGS  =    2.690; RWIGS  =    1.423    wigner-seitz radius (au A)           
   ENMAX  =  210.864; ENMIN  =  158.148 eV                                      
   RCLOC  =    1.857    cutoff for local pot                                    
   LCOR   =        T    correct aug charges                                     
   LPAW   =        T    paw PP                                                  
   EAUG   =  318.962                                                            
   DEXC   =    0.000                                                            
   RMAX   =    2.667    core radius for proj-oper                               
   RAUG   =    1.300    factor for augmentation sphere                          
   RDEP   =    2.748    radius for radial grids                                 
   RDEPT  =    2.300    core radius for aug-charge                              
                                                                                
   Atomic configuration                                                         
   16 entries                                                                   
     n  l   j            E        occ.                                          
     1  0  0.50    -76100.0449   2.0000                                         
     2  0  0.50    -13308.1683   2.0000                                         
     2  1  1.50    -11558.0021   6.0000                                         
     3  0  0.50     -3110.7274   2.0000                                         
     3  1  1.50     -2599.2109   6.0000                                         
     3  2  2.50     -2037.1515  10.0000                                         
     4  0  0.50      -661.6001   2.0000                                         
     4  1  1.50      -493.8981   6.0000                                         
     4  2  2.50      -288.1909  10.0000                                         
     4  3  3.50       -59.5718  14.0000                                         
     5  0  0.50       -95.3879   2.0000                                         
     5  1  1.50       -52.2747   6.0000                                         
     5  2  2.50        -5.4180   8.0000                                         
     6  0  0.50        -5.5479   1.0000                                         
     6  1  1.50        -6.8029   0.0000                                         
     5  3  2.50        -1.3606   0.0000                                         
   Description                                                                  
     l       E           TYP  RCUT    TYP  RCUT                                 
     2     -5.4179967     23  2.600                                             
     2     -6.7785793     23  2.600                                             
     0     -5.5478636     23  2.600                                             
     0      2.2542272     23  2.600                                             
     1     -2.7211652     23  2.600                                             
     1     20.4087390     23  2.600                                             
  local pseudopotential read in
  partial core-charges read in
  partial kinetic energy density read in
  atomic valenz-charges read in
  non local Contribution for L=           2  read in
    real space projection operators read in
  non local Contribution for L=           2  read in
    real space projection operators read in
  non local Contribution for L=           0  read in
    real space projection operators read in
  non local Contribution for L=           0  read in
    real space projection operators read in
  non local Contribution for L=           1  read in
    real space projection operators read in
  non local Contribution for L=           1  read in
    real space projection operators read in
    PAW grid and wavefunctions read in
 
   number of l-projection  operators is LMAX  =           6
   number of lm-projection operators is LMMAX =          18
 
 POTCAR:    PAW_PBE H 15Jun2001                   
   SHA256 =  030f79b5d3ab3cf0e668861823c8fb652ff669f3e15e46930bd03bfd63a607b6 H/
   COPYR  = (c) Copyright 15Jun2001 Georg Kresse                                
   COPYR  = This file is part of the software VASP. Any use, copying, and all ot
   COPYR  = If you do not have a valid VASP license, you may not use, copy or di
   VRHFIN =H: ultrasoft test                                                    
   LEXCH  = PE                                                                  
   EATOM  =    12.4884 eV,    0.9179 Ry                                         
                                                                                
   TITEL  = PAW_PBE H 15Jun2001                                                 
   LULTRA =        F    use ultrasoft PP ?                                      
   IUNSCR =        0    unscreen: 0-lin 1-nonlin 2-no                           
   RPACOR =    0.000    partial core radius                                     
   POMASS =    1.000; ZVAL   =    1.000    mass and valenz                      
   RCORE  =    1.100    outmost cutoff radius                                   
   RWIGS  =    0.700; RWIGS  =    0.370    wigner-seitz radius (au A)           
   ENMAX  =  250.000; ENMIN  =  200.000 eV                                      
   RCLOC  =    0.701    cutoff for local pot                                    
   LCOR   =        T    correct aug charges                                     
   LPAW   =        T    paw PP                                                  
   EAUG   =  400.000                                                            
   RMAX   =    1.123    core radius for proj-oper                               
   RAUG   =    1.200    factor for augmentation sphere                          
   RDEP   =    1.112    radius for radial grids                                 
   RDEPT  =    0.926    core radius for aug-charge                              
                                                                                
   Atomic configuration                                                         
    2 entries                                                                   
     n  l   j            E        occ.                                          
     1  0  0.50        -6.4927   1.0000                                         
     2  1  0.50        -3.4015   0.0000                                         
   Description                                                                  
     l       E           TYP  RCUT    TYP  RCUT                                 
     0     -6.4927494     23  1.100                                             
     0      6.8029130     23  1.100                                             
     1     -4.0817478     23  1.100                                             
  local pseudopotential read in
  atomic valenz-charges read in
  non local Contribution for L=           0  read in
    real space projection operators read in
  non local Contribution for L=           0  read in
    real space projection operators read in
  non local Contribution for L=           1  read in
    real space projection operators read in
    PAW grid and wavefunctions read in
 
   number of l-projection  operators is LMAX  =           3
   number of lm-projection operators is LMMAX =           5
 

 ----------------------------------------------------------------------------- 
|                                                                             |
|  ADVICE TO THIS USER RUNNING 'VASP/VAMP'   (HEAR YOUR MASTER'S VOICE ...):  |
|                                                                             |
|      You have a (more or less) 'large supercell' and for larger cells       |
|      it might be more efficient to use real space projection opertators     |
|      So try LREAL= Auto  in the INCAR   file.                               |
|      Mind:          For very  accurate calculation you might also keep the  |
|      reciprocal projection scheme          (i.e. LREAL=.FALSE.)             |
|                                                                             |
 ----------------------------------------------------------------------------- 

  PAW_PBE Au 04Oct2007                  :
 energy of atom  1       EATOM= -926.0867
 kinetic energy error for atom=    0.0152 (will be added to EATOM!!)
  PAW_PBE Pt 04Feb2005                  :
 energy of atom  2       EATOM= -729.1176
 kinetic energy error for atom=    0.0144 (will be added to EATOM!!)
  PAW_PBE Ir 06Sep2000                  :
 energy of atom  3       EATOM= -560.1833
 kinetic energy error for atom=    0.0056 (will be added to EATOM!!)
  PAW_PBE H 15Jun2001                   :
 energy of atom  4       EATOM=  -12.4884
 kinetic energy error for atom=    0.0203 (will be added to EATOM!!)
 
 
 POSCAR: Au Pt Ir  H                             
  positions in cartesian coordinates
  No initial velocities read in
 exchange correlation table for  LEXCH =        8
   RHO(1)=    0.500       N(1)  =     2000
   RHO(2)=  100.500       N(2)  =     4000
 


--------------------------------------------------------------------------------------------------------


 ion  position               nearest neighbor table
   1  0.000  0.000  0.390-   3 2.78   3 2.78   4 2.78   4 2.78   2 2.78   2 2.78   5 2.84   7 2.84
                             6 2.84
   2  0.500  0.000  0.390-   4 2.78   3 2.78   4 2.78   3 2.78   1 2.78   1 2.78   8 2.81   6 2.84
                             5 2.84
   3  0.000  0.500  0.390-   1 2.78   1 2.78   2 2.78   2 2.78   4 2.78   4 2.78   8 2.81   7 2.84
                             5 2.84
   4  0.500  0.500  0.390-   2 2.78   1 2.78   2 2.78   1 2.78   3 2.78   3 2.78   8 2.81   7 2.84
                             6 2.84
   5  0.167  0.167  0.465-   7 2.78   6 2.78   8 2.78   8 2.78   7 2.78   6 2.78  16 2.80   9 2.80
                            10 2.80   1 2.84   3 2.84   2 2.84
   6  0.667  0.167  0.465-   7 2.78   5 2.78   8 2.78   8 2.78   7 2.78   5 2.78  11 2.80   9 2.80
                            10 2.80   1 2.84   2 2.84   4 2.84
   7  0.167  0.667  0.465-   5 2.78   6 2.78   8 2.78   8 2.78   6 2.78   5 2.78  11 2.80  16 2.80
                            10 2.80   1 2.84   3 2.84   4 2.84
   8  0.667  0.667  0.464-   6 2.78   7 2.78   5 2.78   5 2.78   6 2.78   7 2.78   4 2.81   3 2.81
                             2 2.81   9 2.84  16 2.84  11 2.84
   9  0.834  0.332  0.540-  11 2.77  16 2.77  10 2.78  10 2.78  16 2.79  11 2.79   5 2.80   6 2.80
                            15 2.81  14 2.81   8 2.84  12 2.91
  10  0.333  0.333  0.540-  11 2.78  11 2.78  16 2.78  16 2.78   9 2.78   9 2.78   6 2.80   7 2.80
                             5 2.80  14 2.82  15 2.82  13 2.82
  11  0.834  0.834  0.540-   9 2.77  16 2.77  10 2.78  10 2.78   9 2.79  16 2.79   6 2.80   7 2.80
                            14 2.81  13 2.81   8 2.84  12 2.91
  12  0.000  0.000  0.619-  17 1.56  14 2.78  13 2.78  15 2.78  15 2.78  13 2.78  14 2.78  11 2.91
                            16 2.91   9 2.91
  13  0.500  0.999  0.615-  14 2.77  15 2.77  12 2.78  12 2.78  14 2.79  15 2.79  11 2.81  16 2.81
                            10 2.82
  14  0.999  0.500  0.615-  13 2.77  15 2.77  12 2.78  12 2.78  13 2.79  15 2.79   9 2.81  11 2.81
                            10 2.82
  15  0.500  0.500  0.615-  13 2.77  14 2.77  12 2.78  12 2.78  13 2.79  14 2.79   9 2.81  16 2.81
                            10 2.82
  16  0.332  0.834  0.540-   9 2.77  11 2.77  10 2.78  10 2.78   9 2.79  11 2.79   5 2.80   7 2.80
                            15 2.81  13 2.81   8 2.84  12 2.91
  17  0.000  0.000  0.670-  12 1.56
 
  LATTYP: Found a hexagonal cell.
 ALAT       =     5.5578593001
 C/A-ratio  =     5.5429542221
  
  Lattice vectors:
  
 A1 = (   2.7789296501,  -4.8132473446,   0.0000000000)
 A2 = (  -5.5578593001,   0.0000000000,   0.0000000000)
 A3 = (   0.0000000000,   0.0000000000, -30.8069596737)


Analysis of symmetry for initial positions (statically):
=====================================================================
 Subroutine PRICEL returns:
 Original cell was already a primitive cell.
 

 Routine SETGRP: Setting up the symmetry group for a 
 hexagonal supercell.


 Subroutine GETGRP returns: Found  2 space group operations
 (whereof  2 operations were pure point group operations)
 out of a pool of 24 trial point group operations.


The static configuration has the point symmetry C_1h.


Analysis of symmetry for dynamics (positions and initial velocities):
=====================================================================
 Subroutine PRICEL returns:
 Original cell was already a primitive cell.
 

 Routine SETGRP: Setting up the symmetry group for a 
 hexagonal supercell.


 Subroutine GETGRP returns: Found  2 space group operations
 (whereof  2 operations were pure point group operations)
 out of a pool of 24 trial point group operations.


The dynamic configuration has the point symmetry C_1h.


Analysis of constrained symmetry for selective dynamics:
=====================================================================
 Subroutine PRICEL returns:
 Original cell was already a primitive cell.
 

 Routine SETGRP: Setting up the symmetry group for a 
 hexagonal supercell.


 Subroutine GETGRP returns: Found  2 space group operations
 (whereof  2 operations were pure point group operations)
 out of a pool of 24 trial point group operations.


The constrained configuration has the point symmetry C_1h.


 Subroutine INISYM returns: Found  2 space group operations
 (whereof  2 operations are pure point group operations),
 and found     1 'primitive' translations

 
 
 KPOINTS: KPOINTS created by Atomic Simulation Env

Automatic generation of k-mesh.
Space group operators:
 irot       det(A)        alpha          n_x          n_y          n_z        tau_x        tau_y        tau_z
    1     1.000000     0.000001     1.000000     0.000000     0.000000     0.000000     0.000000     0.000000
    2    -1.000000   180.000000    -0.500000    -0.866025     0.000000     0.000000     0.000000     0.000000
 
 Subroutine IBZKPT returns following result:
 ===========================================
 
 Found     52 irreducible k-points:
 
 Following reciprocal coordinates:
            Coordinates               Weight
  0.062500  0.062500  0.000000     32.000000
 -0.062500  0.000000  0.000000     16.000000
  0.187500  0.062500  0.000000     32.000000
  0.125000  0.187500  0.000000     32.000000
 -0.062500  0.125000  0.000000     32.000000
  0.312500  0.062500  0.000000     32.000000
  0.250000  0.312500  0.000000     32.000000
 -0.062500  0.250000  0.000000     32.000000
  0.437500  0.062500  0.000000     32.000000
  0.375000  0.437500  0.000000     32.000000
 -0.062500  0.375000  0.000000     32.000000
 -0.437500  0.062500  0.000000     32.000000
  0.500000 -0.437500  0.000000     32.000000
 -0.062500  0.500000  0.000000     32.000000
 -0.312500  0.062500  0.000000     32.000000
 -0.375000 -0.312500  0.000000     32.000000
 -0.062500 -0.375000  0.000000     32.000000
 -0.187500  0.062500  0.000000     32.000000
 -0.250000 -0.187500  0.000000     32.000000
 -0.062500 -0.250000  0.000000     32.000000
 -0.062500  0.062500  0.000000     32.000000
 -0.062500 -0.125000  0.000000     16.000000
  0.187500  0.187500  0.000000     32.000000
 -0.187500  0.000000  0.000000     16.000000
  0.312500  0.187500  0.000000     32.000000
  0.125000  0.312500  0.000000     32.000000
 -0.187500  0.125000  0.000000     32.000000
  0.437500  0.187500  0.000000     32.000000
  0.250000  0.437500  0.000000     32.000000
 -0.187500  0.250000  0.000000     32.000000
 -0.437500  0.187500  0.000000     32.000000
  0.375000 -0.437500  0.000000     32.000000
 -0.187500  0.375000  0.000000     32.000000
 -0.312500  0.187500  0.000000     32.000000
  0.500000 -0.312500  0.000000     32.000000
 -0.187500  0.500000  0.000000     32.000000
 -0.187500  0.187500  0.000000     32.000000
 -0.187500 -0.375000  0.000000     16.000000
  0.312500  0.312500  0.000000     32.000000
 -0.312500  0.000000  0.000000     16.000000
  0.437500  0.312500  0.000000     32.000000
  0.125000  0.437500  0.000000     32.000000
 -0.312500  0.125000  0.000000     32.000000
 -0.437500  0.312500  0.000000     32.000000
  0.250000 -0.437500  0.000000     32.000000
 -0.312500  0.250000  0.000000     32.000000
 -0.312500  0.312500  0.000000     32.000000
 -0.312500  0.375000  0.000000     16.000000
  0.437500  0.437500  0.000000     32.000000
 -0.437500  0.000000  0.000000     16.000000
 -0.437500  0.437500  0.000000     32.000000
 -0.437500  0.125000  0.000000     16.000000
 
 Following cartesian coordinates:
            Coordinates               Weight
  0.011245  0.006492  0.000000     32.000000
 -0.011245  0.006492  0.000000     16.000000
  0.033736 -0.006492  0.000000     32.000000
  0.022491  0.025970  0.000000     32.000000
 -0.011245  0.032462  0.000000     32.000000
  0.056227 -0.019477  0.000000     32.000000
  0.044981  0.038955  0.000000     32.000000
 -0.011245  0.058432  0.000000     32.000000
  0.078717 -0.032462  0.000000     32.000000
  0.067472  0.051940  0.000000     32.000000
 -0.011245  0.084402  0.000000     32.000000
 -0.078717  0.058432  0.000000     32.000000
  0.089963 -0.142835  0.000000     32.000000
 -0.011245  0.110372  0.000000     32.000000
 -0.056227  0.045447  0.000000     32.000000
 -0.067472 -0.025970  0.000000     32.000000
 -0.011245 -0.071417  0.000000     32.000000
 -0.033736  0.032462  0.000000     32.000000
 -0.044981 -0.012985  0.000000     32.000000
 -0.011245 -0.045447  0.000000     32.000000
 -0.011245  0.019477  0.000000     32.000000
 -0.011245 -0.019477  0.000000     16.000000
  0.033736  0.019477  0.000000     32.000000
 -0.033736  0.019477  0.000000     16.000000
  0.056227  0.006492  0.000000     32.000000
  0.022491  0.051940  0.000000     32.000000
 -0.033736  0.045447  0.000000     32.000000
  0.078717 -0.006492  0.000000     32.000000
  0.044981  0.064925  0.000000     32.000000
 -0.033736  0.071417  0.000000     32.000000
 -0.078717  0.084402  0.000000     32.000000
  0.067472 -0.129850  0.000000     32.000000
 -0.033736  0.097387  0.000000     32.000000
 -0.056227  0.071417  0.000000     32.000000
  0.089963 -0.116865  0.000000     32.000000
 -0.033736  0.123357  0.000000     32.000000
 -0.033736  0.058432  0.000000     32.000000
 -0.033736 -0.058432  0.000000     16.000000
  0.056227  0.032462  0.000000     32.000000
 -0.056227  0.032462  0.000000     16.000000
  0.078717  0.019477  0.000000     32.000000
  0.022491  0.077910  0.000000     32.000000
 -0.056227  0.058432  0.000000     32.000000
 -0.078717  0.110372  0.000000     32.000000
  0.044981 -0.116865  0.000000     32.000000
 -0.056227  0.084402  0.000000     32.000000
 -0.056227  0.097387  0.000000     32.000000
 -0.056227  0.110372  0.000000     16.000000
  0.078717  0.045447  0.000000     32.000000
 -0.078717  0.045447  0.000000     16.000000
 -0.078717  0.136342  0.000000     32.000000
 -0.078717  0.071417  0.000000     16.000000
 


--------------------------------------------------------------------------------------------------------




 Dimension of arrays:
   k-points           NKPTS =     52   k-points in BZ     NKDIM =     52   number of bands    NBANDS=     96
   number of dos      NEDOS =    301   number of ions     NIONS =     17
   non local maximal  LDIM  =      6   non local SUM 2l+1 LMDIM =     18
   total plane-waves  NPLWV = 112896
   max r-space proj   IRMAX =      1   max aug-charges    IRDMAX=  10104
   dimension x,y,z NGX =    28 NGY =   28 NGZ =  144
   dimension x,y,z NGXF=    56 NGYF=   56 NGZF=  288
   support grid    NGXF=    56 NGYF=   56 NGZF=  288
   ions per type =               1  14   1   1
   NGX,Y,Z   is equivalent  to a cutoff of   8.38,  8.38,  7.77 a.u.
   NGXF,Y,Z  is equivalent  to a cutoff of  16.75, 16.75, 15.54 a.u.

 SYSTEM =  unknown system                          
 POSCAR =  Au Pt Ir  H                             

 Startparameter for this run:
   NWRITE =      2    write-flag & timer
   PREC   = normal    normal or accurate (medium, high low for compatibility)
   ISTART =      0    job   : 0-new  1-cont  2-samecut
   ICHARG =      2    charge: 1-file 2-atom 10-const
   ISPIN  =      1    spin polarized calculation?
   LNONCOLLINEAR =      F non collinear calculations
   LSORBIT =      F    spin-orbit coupling
   INIWAV =      1    electr: 0-lowe 1-rand  2-diag
   LASPH  =      F    aspherical Exc in radial PAW
   METAGGA=      F    non-selfconsistent MetaGGA calc.

 Electronic Relaxation 1
   ENCUT  =  350.0 eV  25.72 Ry    5.07 a.u.   8.48  8.48 46.99*2*pi/ulx,y,z
   ENINI  =  350.0     initial cutoff
   ENAUG  =  400.0 eV  augmentation charge cutoff
   NELM   =     60;   NELMIN=  2; NELMDL= -5     # of ELM steps 
   EDIFF  = 0.1E-04   stopping-criterion for ELM
   LREAL  =      F    real-space projection
   NLSPLINE    = F    spline interpolate recip. space projectors
   LCOMPAT=      F    compatible to vasp.4.4
   GGA_COMPAT  = T    GGA compatible to vasp.4.4-vasp.4.6
   LMAXPAW     = -100 max onsite density
   LMAXMIX     =    2 max onsite mixed and CHGCAR
   VOSKOWN=      0    Vosko Wilk Nusair interpolation
   ROPT   =    0.00000   0.00000   0.00000   0.00000
 Ionic relaxation
   EDIFFG = -.5E-01   stopping-criterion for IOM
   NSW    =      0    number of steps for IOM
   NBLOCK =      1;   KBLOCK =      1    inner block; outer block 
   IBRION =     -1    ionic relax: 0-MD 1-quasi-New 2-CG
   NFREE  =      1    steps in history (QN), initial steepest desc. (CG)
   ISIF   =      2    stress and relaxation
   IWAVPR =     10    prediction:  0-non 1-charg 2-wave 3-comb
   ISYM   =      2    0-nonsym 1-usesym 2-fastsym
   LCORR  =      T    Harris-Foulkes like correction to forces

   POTIM  = 0.5000    time-step for ionic-motion
   TEIN   =    0.0    initial temperature
   TEBEG  =    0.0;   TEEND  =   0.0 temperature during run
   SMASS  =  -3.00    Nose mass-parameter (am)
   estimated Nose-frequenzy (Omega)   =  0.10E-29 period in steps =****** mass=  -0.706E-27a.u.
   SCALEE = 1.0000    scale energy and forces
   NPACO  =    256;   APACO  = 16.0  distance and # of slots for P.C.
   PSTRESS=    0.0 pullay stress

  Mass of Ions in am
   POMASS = 196.97195.08192.22  1.00
  Ionic Valenz
   ZVAL   =  11.00 10.00  9.00  1.00
  Atomic Wigner-Seitz radii
   RWIGS  =  -1.00 -1.00 -1.00 -1.00
  virtual crystal weights 
   VCA    =   1.00  1.00  1.00  1.00
   NELECT =     161.0000    total number of electrons
   NUPDOWN=      -1.0000    fix difference up-down

 DOS related values:
   EMIN   =  10.00;   EMAX   =-10.00  energy-range for DOS
   EFERMI =   0.00
   ISMEAR =     1;   SIGMA  =   0.20  broadening in eV -4-tet -1-fermi 0-gaus

 Electronic relaxation 2 (details)
   IALGO  =     38    algorithm
   LDIAG  =      T    sub-space diagonalisation (order eigenvalues)
   LSUBROT=      F    optimize rotation matrix (better conditioning)
   TURBO    =      0    0=normal 1=particle mesh
   IRESTART =      0    0=no restart 2=restart with 2 vectors
   NREBOOT  =      0    no. of reboots
   NMIN     =      0    reboot dimension
   EREF     =   0.00    reference energy to select bands
   IMIX   =      4    mixing-type and parameters
     AMIX     =   0.40;   BMIX     =  1.00
     AMIX_MAG =   1.60;   BMIX_MAG =  1.00
     AMIN     =   0.10
     WC   =   100.;   INIMIX=   1;  MIXPRE=   1;  MAXMIX= -45

 Intra band minimization:
   WEIMIN = 0.0000     energy-eigenvalue tresh-hold
   EBREAK =  0.26E-07  absolut break condition
   DEPER  =   0.30     relativ break condition  

   TIME   =   0.40     timestep for ELM

  volume/ion in A,a.u.               =      48.48       327.15
  Fermi-wavevector in a.u.,A,eV,Ry     =   0.949916  1.795081 12.277090  0.902341
  Thomas-Fermi vector in A             =   2.078244
 
 Write flags
   LWAVE        =      F    write WAVECAR
   LDOWNSAMPLE  =      F    k-point downsampling of WAVECAR
   LCHARG       =      F    write CHGCAR
   LVTOT        =      F    write LOCPOT, total local potential
   LVHAR        =      F    write LOCPOT, Hartree potential only
   LELF         =      F    write electronic localiz. function (ELF)
   LORBIT       =      0    0 simple, 1 ext, 2 COOP (PROOUT), +10 PAW based schemes


 Dipole corrections
   LMONO  =      F    monopole corrections only (constant potential shift)
   LDIPOL =      F    correct potential (dipole corrections)
   IDIPOL =      3    1-x, 2-y, 3-z, 4-all directions 
   EPSILON=  1.0000000 bulk dielectric constant

 Exchange correlation treatment:
   GGA     =    PE    GGA type
   LEXCH   =     8    internal setting for exchange type
   VOSKOWN=      0    Vosko Wilk Nusair interpolation
   LHFCALC =     F    Hartree Fock is set to
   LHFONE  =     F    Hartree Fock one center treatment
   AEXX    =    0.0000 exact exchange contribution

 Linear response parameters
   LEPSILON=     F    determine dielectric tensor
   LRPA    =     F    only Hartree local field effects (RPA)
   LNABLA  =     F    use nabla operator in PAW spheres
   LVEL    =     F    velocity operator in full k-point grid
   LINTERFAST=   F  fast interpolation
   KINTER  =     0    interpolate to denser k-point grid
   CSHIFT  =0.1000    complex shift for real part using Kramers Kronig
   OMEGAMAX=  -1.0    maximum frequency
   DEG_THRESHOLD= 0.2000000E-02 threshold for treating states as degnerate
   RTIME   =   -0.100 relaxation time in fs
  (WPLASMAI=    0.000 imaginary part of plasma frequency in eV, 0.658/RTIME)
   DFIELD  = 0.0000000 0.0000000 0.0000000 field for delta impulse in time
 
 Orbital magnetization related:
   ORBITALMAG=     F  switch on orbital magnetization
   LCHIMAG   =     F  perturbation theory with respect to B field
   DQ        =  0.001000  dq finite difference perturbation B field
   LLRAUG    =     F  two centre corrections for induced B field



--------------------------------------------------------------------------------------------------------


 Static calculation
 charge density and potential will be updated during run
 non-spin polarized calculation
 Variant of blocked Davidson
 Davidson routine will perform the subspace rotation
 perform sub-space diagonalisation
    after iterative eigenvector-optimisation
 modified Broyden-mixing scheme, WC =      100.0
 initial mixing is a Kerker type mixing with AMIX =  0.4000 and BMIX =      1.0000
 Hartree-type preconditioning will be used
 using additional bands           15
 reciprocal scheme for non local part
 use partial core corrections
 calculate Harris-corrections to forces 
   (improved forces if not selfconsistent)
 use gradient corrections 
 use of overlap-Matrix (Vanderbilt PP)
 Methfessel and Paxton  Order N= 1 SIGMA  =   0.20


--------------------------------------------------------------------------------------------------------


  energy-cutoff  :      350.00
  volume of cell :      824.13
      direct lattice vectors                 reciprocal lattice vectors
     5.557859300  0.000000000  0.000000000     0.179925390 -0.103879972  0.000000000
     2.778929650  4.813247345  0.000000000     0.000000000  0.207759944  0.000000000
     0.000000000  0.000000000 30.806959674     0.000000000  0.000000000  0.032460198

  length of vectors
     5.557859300  5.557859300 30.806959674     0.207759944  0.207759944  0.032460198


 
 k-points in units of 2pi/SCALE and weight: KPOINTS created by Atomic Simulation Env
   0.01124534  0.00649250  0.00000000       0.021
  -0.01124534  0.00649250  0.00000000       0.010
   0.03373601 -0.00649250  0.00000000       0.021
   0.02249067  0.02596999  0.00000000       0.021
  -0.01124534  0.03246249  0.00000000       0.021
   0.05622668 -0.01947749  0.00000000       0.021
   0.04498135  0.03895499  0.00000000       0.021
  -0.01124534  0.05843248  0.00000000       0.021
   0.07871736 -0.03246249  0.00000000       0.021
   0.06747202  0.05193999  0.00000000       0.021
  -0.01124534  0.08440248  0.00000000       0.021
  -0.07871736  0.05843248  0.00000000       0.021
   0.08996269 -0.14283496  0.00000000       0.021
  -0.01124534  0.11037247  0.00000000       0.021
  -0.05622668  0.04544749  0.00000000       0.021
  -0.06747202 -0.02596999  0.00000000       0.021
  -0.01124534 -0.07141748  0.00000000       0.021
  -0.03373601  0.03246249  0.00000000       0.021
  -0.04498135 -0.01298500  0.00000000       0.021
  -0.01124534 -0.04544749  0.00000000       0.021
  -0.01124534  0.01947749  0.00000000       0.021
  -0.01124534 -0.01947749  0.00000000       0.010
   0.03373601  0.01947749  0.00000000       0.021
  -0.03373601  0.01947749  0.00000000       0.010
   0.05622668  0.00649250  0.00000000       0.021
   0.02249067  0.05193999  0.00000000       0.021
  -0.03373601  0.04544749  0.00000000       0.021
   0.07871736 -0.00649250  0.00000000       0.021
   0.04498135  0.06492498  0.00000000       0.021
  -0.03373601  0.07141748  0.00000000       0.021
  -0.07871736  0.08440248  0.00000000       0.021
   0.06747202 -0.12984997  0.00000000       0.021
  -0.03373601  0.09738747  0.00000000       0.021
  -0.05622668  0.07141748  0.00000000       0.021
   0.08996269 -0.11686497  0.00000000       0.021
  -0.03373601  0.12335747  0.00000000       0.021
  -0.03373601  0.05843248  0.00000000       0.021
  -0.03373601 -0.05843248  0.00000000       0.010
   0.05622668  0.03246249  0.00000000       0.021
  -0.05622668  0.03246249  0.00000000       0.010
   0.07871736  0.01947749  0.00000000       0.021
   0.02249067  0.07790998  0.00000000       0.021
  -0.05622668  0.05843248  0.00000000       0.021
  -0.07871736  0.11037247  0.00000000       0.021
   0.04498135 -0.11686497  0.00000000       0.021
  -0.05622668  0.08440248  0.00000000       0.021
  -0.05622668  0.09738747  0.00000000       0.021
  -0.05622668  0.11037247  0.00000000       0.010
   0.07871736  0.04544749  0.00000000       0.021
  -0.07871736  0.04544749  0.00000000       0.010
  -0.07871736  0.13634246  0.00000000       0.021
  -0.07871736  0.07141748  0.00000000       0.010
 
 k-points in reciprocal lattice and weights: KPOINTS created by Atomic Simulation Env
   0.06250000  0.06250000  0.00000000       0.021
  -0.06250000  0.00000000  0.00000000       0.010
   0.18750000  0.06250000  0.00000000       0.021
   0.12500000  0.18750000  0.00000000       0.021
  -0.06250000  0.12500000  0.00000000       0.021
   0.31250000  0.06250000  0.00000000       0.021
   0.25000000  0.31250000  0.00000000       0.021
  -0.06250000  0.25000000  0.00000000       0.021
   0.43750000  0.06250000  0.00000000       0.021
   0.37500000  0.43750000  0.00000000       0.021
  -0.06250000  0.37500000  0.00000000       0.021
  -0.43750000  0.06250000  0.00000000       0.021
   0.50000000 -0.43750000  0.00000000       0.021
  -0.06250000  0.50000000  0.00000000       0.021
  -0.31250000  0.06250000  0.00000000       0.021
  -0.37500000 -0.31250000  0.00000000       0.021
  -0.06250000 -0.37500000  0.00000000       0.021
  -0.18750000  0.06250000  0.00000000       0.021
  -0.25000000 -0.18750000  0.00000000       0.021
  -0.06250000 -0.25000000  0.00000000       0.021
  -0.06250000  0.06250000  0.00000000       0.021
  -0.06250000 -0.12500000  0.00000000       0.010
   0.18750000  0.18750000  0.00000000       0.021
  -0.18750000  0.00000000  0.00000000       0.010
   0.31250000  0.18750000  0.00000000       0.021
   0.12500000  0.31250000  0.00000000       0.021
  -0.18750000  0.12500000  0.00000000       0.021
   0.43750000  0.18750000  0.00000000       0.021
   0.25000000  0.43750000  0.00000000       0.021
  -0.18750000  0.25000000  0.00000000       0.021
  -0.43750000  0.18750000  0.00000000       0.021
   0.37500000 -0.43750000  0.00000000       0.021
  -0.18750000  0.37500000  0.00000000       0.021
  -0.31250000  0.18750000  0.00000000       0.021
   0.50000000 -0.31250000  0.00000000       0.021
  -0.18750000  0.50000000  0.00000000       0.021
  -0.18750000  0.18750000  0.00000000       0.021
  -0.18750000 -0.37500000  0.00000000       0.010
   0.31250000  0.31250000  0.00000000       0.021
  -0.31250000  0.00000000  0.00000000       0.010
   0.43750000  0.31250000  0.00000000       0.021
   0.12500000  0.43750000  0.00000000       0.021
  -0.31250000  0.12500000  0.00000000       0.021
  -0.43750000  0.31250000  0.00000000       0.021
   0.25000000 -0.43750000  0.00000000       0.021
  -0.31250000  0.25000000  0.00000000       0.021
  -0.31250000  0.31250000  0.00000000       0.021
  -0.31250000  0.37500000  0.00000000       0.010
   0.43750000  0.43750000  0.00000000       0.021
  -0.43750000  0.00000000  0.00000000       0.010
  -0.43750000  0.43750000  0.00000000       0.021
  -0.43750000  0.12500000  0.00000000       0.010
 
 position of ions in fractional coordinates (direct lattice) 
   0.00000000  0.00000000  0.38952237
   0.50000000  0.00000000  0.38952237
   0.00000000  0.50000000  0.38952237
   0.50000000  0.50000000  0.38952237
   0.16652883  0.16652883  0.46542487
   0.66694234  0.16652883  0.46542487
   0.16652883  0.66694234  0.46542487
   0.66666667  0.66666667  0.46426737
   0.83396869  0.33206261  0.54005199
   0.33333333  0.33333333  0.53994492
   0.83396869  0.83396869  0.54005199
   0.00000000  0.00000000  0.61904352
   0.50048728  0.99902544  0.61498914
   0.99902544  0.50048728  0.61498914
   0.50048728  0.50048728  0.61498914
   0.33206261  0.83396869  0.54005199
   0.00000000  0.00000000  0.66953436
 
 position of ions in cartesian coordinates  (Angst):
   0.00000000  0.00000000 12.00000000
   2.77892965  0.00000000 12.00000000
   1.38946483  2.40662367 12.00000000
   4.16839448  2.40662367 12.00000000
   1.38831573  0.80154446 14.33832516
   4.16954357  0.80154446 14.33832516
   2.77892965  3.21015843 14.33832516
   5.55785930  3.20883156 14.30266626
   5.55785930  1.59829948 16.63736001
   2.77892965  1.60441578 16.63406129
   6.95262100  4.01409760 16.63736001
   0.00000000  0.00000000 19.07084875
   5.55785930  4.80855657 18.94594552
   6.94326179  2.40896906 18.94594552
   4.17245681  2.40896906 18.94594552
   4.16309760  4.01409760 16.63736001
   0.00000000  0.00000000 20.62631794
 


--------------------------------------------------------------------------------------------------------


 k-point  1 :   0.0625 0.0625 0.0000  plane waves:   12325
 k-point  2 :  -0.0625 0.0000 0.0000  plane waves:   12325
 k-point  3 :   0.1875 0.0625 0.0000  plane waves:   12294
 k-point  4 :   0.1250 0.1875 0.0000  plane waves:   12294
 k-point  5 :  -0.0625 0.1250 0.0000  plane waves:   12294
 k-point  6 :   0.3125 0.0625 0.0000  plane waves:   12263
 k-point  7 :   0.2500 0.3125 0.0000  plane waves:   12263
 k-point  8 :  -0.0625 0.2500 0.0000  plane waves:   12263
 k-point  9 :   0.4375 0.0625 0.0000  plane waves:   12221
 k-point 10 :   0.3750 0.4375 0.0000  plane waves:   12221
 k-point 11 :  -0.0625 0.3750 0.0000  plane waves:   12221
 k-point 12 :  -0.4375 0.0625 0.0000  plane waves:   12211
 k-point 13 :   0.5000-0.4375 0.0000  plane waves:   12211
 k-point 14 :  -0.0625 0.5000 0.0000  plane waves:   12211
 k-point 15 :  -0.3125 0.0625 0.0000  plane waves:   12242
 k-point 16 :  -0.3750-0.3125 0.0000  plane waves:   12242
 k-point 17 :  -0.0625-0.3750 0.0000  plane waves:   12242
 k-point 18 :  -0.1875 0.0625 0.0000  plane waves:   12280
 k-point 19 :  -0.2500-0.1875 0.0000  plane waves:   12280
 k-point 20 :  -0.0625-0.2500 0.0000  plane waves:   12280
 k-point 21 :  -0.0625 0.0625 0.0000  plane waves:   12329
 k-point 22 :  -0.0625-0.1250 0.0000  plane waves:   12329
 k-point 23 :   0.1875 0.1875 0.0000  plane waves:   12277
 k-point 24 :  -0.1875 0.0000 0.0000  plane waves:   12277
 k-point 25 :   0.3125 0.1875 0.0000  plane waves:   12288
 k-point 26 :   0.1250 0.3125 0.0000  plane waves:   12288
 k-point 27 :  -0.1875 0.1250 0.0000  plane waves:   12288
 k-point 28 :   0.4375 0.1875 0.0000  plane waves:   12234
 k-point 29 :   0.2500 0.4375 0.0000  plane waves:   12234
 k-point 30 :  -0.1875 0.2500 0.0000  plane waves:   12234
 k-point 31 :  -0.4375 0.1875 0.0000  plane waves:   12216
 k-point 32 :   0.3750-0.4375 0.0000  plane waves:   12216
 k-point 33 :  -0.1875 0.3750 0.0000  plane waves:   12216
 k-point 34 :  -0.3125 0.1875 0.0000  plane waves:   12215
 k-point 35 :   0.5000-0.3125 0.0000  plane waves:   12215
 k-point 36 :  -0.1875 0.5000 0.0000  plane waves:   12215
 k-point 37 :  -0.1875 0.1875 0.0000  plane waves:   12289
 k-point 38 :  -0.1875-0.3750 0.0000  plane waves:   12289
 k-point 39 :   0.3125 0.3125 0.0000  plane waves:   12275
 k-point 40 :  -0.3125 0.0000 0.0000  plane waves:   12275
 k-point 41 :   0.4375 0.3125 0.0000  plane waves:   12239
 k-point 42 :   0.1250 0.4375 0.0000  plane waves:   12239
 k-point 43 :  -0.3125 0.1250 0.0000  plane waves:   12239
 k-point 44 :  -0.4375 0.3125 0.0000  plane waves:   12235
 k-point 45 :   0.2500-0.4375 0.0000  plane waves:   12235
 k-point 46 :  -0.3125 0.2500 0.0000  plane waves:   12235
 k-point 47 :  -0.3125 0.3125 0.0000  plane waves:   12232
 k-point 48 :  -0.3125 0.3750 0.0000  plane waves:   12232
 k-point 49 :   0.4375 0.4375 0.0000  plane waves:   12200
 k-point 50 :  -0.4375 0.0000 0.0000  plane waves:   12200
 k-point 51 :  -0.4375 0.4375 0.0000  plane waves:   12214
 k-point 52 :  -0.4375 0.1250 0.0000  plane waves:   12214

 maximum and minimum number of plane-waves per node :     12329    12200

 maximum number of plane-waves:     12329
 maximum index in each direction: 
   IXMAX=    8   IYMAX=    8   IZMAX=   46
   IXMIN=   -8   IYMIN=   -8   IZMIN=  -46


 serial   3D FFT for wavefunctions
 parallel 3D FFT for charge:
    minimum data exchange during FFTs selected (reduces bandwidth)


 total amount of memory used by VASP MPI-rank0   455244. kBytes
=======================================================================

   base      :      30000. kBytes
   nonl-proj :     372843. kBytes
   fftplans  :       2015. kBytes
   grid      :       8030. kBytes
   one-center:        264. kBytes
   wavefun   :      42092. kBytes
 
     INWAV:  cpu time    0.0000: real time    0.0000
 Broyden mixing: mesh for mixing (old mesh)
   NGX = 17   NGY = 17   NGZ = 93
  (NGX  = 56   NGY  = 56   NGZ  =288)
  gives a total of  26877 points

 initial charge density was supplied:
 charge density of overlapping atoms calculated
 number of electron     161.0000000 magnetization 
 keeping initial charge density in first step


--------------------------------------------------------------------------------------------------------


 Maximum index for augmentation-charges          728 (set IRDMAX)


--------------------------------------------------------------------------------------------------------


 First call to EWALD:  gamma=   0.189
 Maximum number of real-space cells 5x 5x 1
 Maximum number of reciprocal cells 2x 2x 8

    FEWALD:  cpu time    0.0015: real time    0.0015


--------------------------------------- Iteration      1(   1)  ---------------------------------------


    POTLOK:  cpu time    0.0194: real time    0.0308
    SETDIJ:  cpu time    0.0023: real time    0.0023
     EDDAV:  cpu time    9.2912: real time    9.2948
       DOS:  cpu time    0.0015: real time    0.0015
    --------------------------------------------
      LOOP:  cpu time    9.3144: real time    9.3294

 eigenvalue-minimisations  :  9984
 total energy-change (2. order) : 0.9803919E+03  (-0.5575852E+04)
 number of electron     161.0000000 magnetization 
 augmentation part      161.0000000 magnetization 

 Free energy of the ion-electron system (eV)
  ---------------------------------------------------
  alpha Z        PSCENC =       305.89839443
  Ewald energy   TEWEN  =     98129.21404172
  -Hartree energ DENC   =   -110216.01918248
  -exchange      EXHF   =         0.00000000
  -V(xc)+E(xc)   XCENC  =        48.82102570
  PAW double counting   =     11173.35063782   -10713.98924482
  entropy T*S    EENTRO =        -0.00711617
  eigenvalues    EBANDS =       546.96096283
  atomic energy  EATOM  =     11706.16234457
  Solvation  Ediel_sol  =         0.00000000
  ---------------------------------------------------
  free energy    TOTEN  =       980.39186360 eV

  energy without entropy =      980.39897977  energy(sigma->0) =      980.39423565


--------------------------------------------------------------------------------------------------------




--------------------------------------- Iteration      1(   2)  ---------------------------------------


     EDDAV:  cpu time   13.0878: real time   13.0904
       DOS:  cpu time    0.0030: real time    0.0030
    --------------------------------------------
      LOOP:  cpu time   13.0908: real time   13.0934

 eigenvalue-minimisations  : 14544
 total energy-change (2. order) :-0.1023389E+04  (-0.9939506E+03)
 number of electron     161.0000000 magnetization 
 augmentation part      161.0000000 magnetization 

 Free energy of the ion-electron system (eV)
  ---------------------------------------------------
  alpha Z        PSCENC =       305.89839443
  Ewald energy   TEWEN  =     98129.21404172
  -Hartree energ DENC   =   -110216.01918248
  -exchange      EXHF   =         0.00000000
  -V(xc)+E(xc)   XCENC  =        48.82102570
  PAW double counting   =     11173.35063782   -10713.98924482
  entropy T*S    EENTRO =        -0.00807394
  eigenvalues    EBANDS =      -476.42696800
  atomic energy  EATOM  =     11706.16234457
  Solvation  Ediel_sol  =         0.00000000
  ---------------------------------------------------
  free energy    TOTEN  =       -42.99702501 eV

  energy without entropy =      -42.98895107  energy(sigma->0) =      -42.99433370


--------------------------------------------------------------------------------------------------------




--------------------------------------- Iteration      1(   3)  ---------------------------------------


     EDDAV:  cpu time   11.3348: real time   11.3429
       DOS:  cpu time    0.0018: real time    0.0018
    --------------------------------------------
      LOOP:  cpu time   11.3366: real time   11.3447

 eigenvalue-minimisations  : 12480
 total energy-change (2. order) :-0.5873725E+02  (-0.5708546E+02)
 number of electron     161.0000000 magnetization 
 augmentation part      161.0000000 magnetization 

 Free energy of the ion-electron system (eV)
  ---------------------------------------------------
  alpha Z        PSCENC =       305.89839443
  Ewald energy   TEWEN  =     98129.21404172
  -Hartree energ DENC   =   -110216.01918248
  -exchange      EXHF   =         0.00000000
  -V(xc)+E(xc)   XCENC  =        48.82102570
  PAW double counting   =     11173.35063782   -10713.98924482
  entropy T*S    EENTRO =        -0.01755731
  eigenvalues    EBANDS =      -535.15473943
  atomic energy  EATOM  =     11706.16234457
  Solvation  Ediel_sol  =         0.00000000
  ---------------------------------------------------
  free energy    TOTEN  =      -101.73427981 eV

  energy without entropy =     -101.71672249  energy(sigma->0) =     -101.72842737


--------------------------------------------------------------------------------------------------------




--------------------------------------- Iteration      1(   4)  ---------------------------------------


     EDDAV:  cpu time   12.6205: real time   12.6229
       DOS:  cpu time    0.0017: real time    0.0017
    --------------------------------------------
      LOOP:  cpu time   12.6222: real time   12.6246

 eigenvalue-minimisations  : 14256
 total energy-change (2. order) :-0.1265522E+01  (-0.1260489E+01)
 number of electron     161.0000000 magnetization 
 augmentation part      161.0000000 magnetization 

 Free energy of the ion-electron system (eV)
  ---------------------------------------------------
  alpha Z        PSCENC =       305.89839443
  Ewald energy   TEWEN  =     98129.21404172
  -Hartree energ DENC   =   -110216.01918248
  -exchange      EXHF   =         0.00000000
  -V(xc)+E(xc)   XCENC  =        48.82102570
  PAW double counting   =     11173.35063782   -10713.98924482
  entropy T*S    EENTRO =        -0.01707547
  eigenvalues    EBANDS =      -536.42074306
  atomic energy  EATOM  =     11706.16234457
  Solvation  Ediel_sol  =         0.00000000
  ---------------------------------------------------
  free energy    TOTEN  =      -102.99980159 eV

  energy without entropy =     -102.98272613  energy(sigma->0) =     -102.99410977


--------------------------------------------------------------------------------------------------------




--------------------------------------- Iteration      1(   5)  ---------------------------------------


     EDDAV:  cpu time   13.4092: real time   13.4119
       DOS:  cpu time    0.0018: real time    0.0018
    CHARGE:  cpu time    0.3180: real time    0.3181
    MIXING:  cpu time    0.0010: real time    0.0010
    --------------------------------------------
      LOOP:  cpu time   13.7300: real time   13.7328

 eigenvalue-minimisations  : 15072
 total energy-change (2. order) :-0.3224049E-01  (-0.3223019E-01)
 number of electron     161.0000085 magnetization 
 augmentation part       46.8740278 magnetization 

 Broyden mixing:
  rms(total) = 0.41884E+01    rms(broyden)= 0.41883E+01
  rms(prec ) = 0.42203E+01
  weight for this iteration     100.00

 Free energy of the ion-electron system (eV)
  ---------------------------------------------------
  alpha Z        PSCENC =       305.89839443
  Ewald energy   TEWEN  =     98129.21404172
  -Hartree energ DENC   =   -110216.01918248
  -exchange      EXHF   =         0.00000000
  -V(xc)+E(xc)   XCENC  =        48.82102570
  PAW double counting   =     11173.35063782   -10713.98924482
  entropy T*S    EENTRO =        -0.01707373
  eigenvalues    EBANDS =      -536.45298529
  atomic energy  EATOM  =     11706.16234457
  Solvation  Ediel_sol  =         0.00000000
  ---------------------------------------------------
  free energy    TOTEN  =      -103.03204208 eV

  energy without entropy =     -103.01496835  energy(sigma->0) =     -103.02635084


--------------------------------------------------------------------------------------------------------




--------------------------------------- Iteration      1(   6)  ---------------------------------------


    POTLOK:  cpu time    0.0184: real time    0.0224
    SETDIJ:  cpu time    0.0021: real time    0.0021
     EDDAV:  cpu time   10.9317: real time   10.9335
       DOS:  cpu time    0.0016: real time    0.0016
    CHARGE:  cpu time    0.3182: real time    0.3182
    MIXING:  cpu time    0.0007: real time    0.0007
    --------------------------------------------
      LOOP:  cpu time   11.2727: real time   11.2786

 eigenvalue-minimisations  : 12192
 total energy-change (2. order) : 0.4372589E+01  (-0.3285825E+01)
 number of electron     161.0000078 magnetization 
 augmentation part       49.5981086 magnetization 

 Broyden mixing:
  rms(total) = 0.29420E+01    rms(broyden)= 0.29420E+01
  rms(prec ) = 0.30477E+01
  weight for this iteration     100.00

 eigenvalues of (default mixing * dielectric matrix)
  average eigenvalue GAMMA=   1.3003
  1.3003

 Free energy of the ion-electron system (eV)
  ---------------------------------------------------
  alpha Z        PSCENC =       305.89839443
  Ewald energy   TEWEN  =     98129.21404172
  -Hartree energ DENC   =   -110016.26531590
  -exchange      EXHF   =         0.00000000
  -V(xc)+E(xc)   XCENC  =        44.79340077
  PAW double counting   =     12334.07007604   -11898.25232311
  entropy T*S    EENTRO =        -0.04095264
  eigenvalues    EBANDS =      -704.23911918
  atomic energy  EATOM  =     11706.16234457
  Solvation  Ediel_sol  =         0.00000000
  ---------------------------------------------------
  free energy    TOTEN  =       -98.65945331 eV

  energy without entropy =      -98.61850067  energy(sigma->0) =      -98.64580243


--------------------------------------------------------------------------------------------------------




--------------------------------------- Iteration      1(   7)  ---------------------------------------


    POTLOK:  cpu time    0.0162: real time    0.0162
    SETDIJ:  cpu time    0.0021: real time    0.0021
     EDDAV:  cpu time   12.3525: real time   12.3545
       DOS:  cpu time    0.0018: real time    0.0018
    CHARGE:  cpu time    0.3181: real time    0.3182
    MIXING:  cpu time    0.0007: real time    0.0007
    --------------------------------------------
      LOOP:  cpu time   12.6914: real time   12.6934

 eigenvalue-minimisations  : 13944
 total energy-change (2. order) :-0.2772289E+02  (-0.2485718E+02)
 number of electron     161.0000099 magnetization 
 augmentation part       48.7223113 magnetization 

 Broyden mixing:
  rms(total) = 0.45282E+01    rms(broyden)= 0.45281E+01
  rms(prec ) = 0.51082E+01
  weight for this iteration     100.00

 eigenvalues of (default mixing * dielectric matrix)
  average eigenvalue GAMMA=   1.1191
  1.9870  0.2513

 Free energy of the ion-electron system (eV)
  ---------------------------------------------------
  alpha Z        PSCENC =       305.89839443
  Ewald energy   TEWEN  =     98129.21404172
  -Hartree energ DENC   =   -110184.24657273
  -exchange      EXHF   =         0.00000000
  -V(xc)+E(xc)   XCENC  =        43.38678192
  PAW double counting   =     13222.83915253   -12797.71846841
  entropy T*S    EENTRO =        -0.00440897
  eigenvalues    EBANDS =      -551.91361044
  atomic energy  EATOM  =     11706.16234457
  Solvation  Ediel_sol  =         0.00000000
  ---------------------------------------------------
  free energy    TOTEN  =      -126.38234538 eV

  energy without entropy =     -126.37793641  energy(sigma->0) =     -126.38087572


--------------------------------------------------------------------------------------------------------




--------------------------------------- Iteration      1(   8)  ---------------------------------------


    POTLOK:  cpu time    0.0183: real time    0.0206
    SETDIJ:  cpu time    0.0023: real time    0.0023
     EDDAV:  cpu time   11.6242: real time   11.6258
       DOS:  cpu time    0.0018: real time    0.0018
    CHARGE:  cpu time    0.3174: real time    0.3174
    MIXING:  cpu time    0.0006: real time    0.0006
    --------------------------------------------
      LOOP:  cpu time   11.9646: real time   11.9686

 eigenvalue-minimisations  : 13008
 total energy-change (2. order) : 0.2028584E+02  (-0.1263405E+02)
 number of electron     161.0000089 magnetization 
 augmentation part       50.1821542 magnetization 

 Broyden mixing:
  rms(total) = 0.27716E+01    rms(broyden)= 0.27716E+01
  rms(prec ) = 0.32030E+01
  weight for this iteration     100.00

 eigenvalues of (default mixing * dielectric matrix)
  average eigenvalue GAMMA=   0.8987
  2.0808  0.3077  0.3077

 Free energy of the ion-electron system (eV)
  ---------------------------------------------------
  alpha Z        PSCENC =       305.89839443
  Ewald energy   TEWEN  =     98129.21404172
  -Hartree energ DENC   =   -110064.75763021
  -exchange      EXHF   =         0.00000000
  -V(xc)+E(xc)   XCENC  =        42.88445430
  PAW double counting   =     14015.34099785   -13599.91478827
  entropy T*S    EENTRO =         0.00817611
  eigenvalues    EBANDS =      -640.93249814
  atomic energy  EATOM  =     11706.16234457
  Solvation  Ediel_sol  =         0.00000000
  ---------------------------------------------------
  free energy    TOTEN  =      -106.09650764 eV

  energy without entropy =     -106.10468374  energy(sigma->0) =     -106.09923301


--------------------------------------------------------------------------------------------------------




--------------------------------------- Iteration      1(   9)  ---------------------------------------


    POTLOK:  cpu time    0.0168: real time    0.0168
    SETDIJ:  cpu time    0.0023: real time    0.0023
     EDDAV:  cpu time   12.8632: real time   12.8653
       DOS:  cpu time    0.0017: real time    0.0017
    CHARGE:  cpu time    0.3176: real time    0.3177
    MIXING:  cpu time    0.0006: real time    0.0006
    --------------------------------------------
      LOOP:  cpu time   13.2023: real time   13.2044

 eigenvalue-minimisations  : 14640
 total energy-change (2. order) :-0.4878600E-01  (-0.1209980E+02)
 number of electron     161.0000089 magnetization 
 augmentation part       50.0901376 magnetization 

 Broyden mixing:
  rms(total) = 0.24986E+01    rms(broyden)= 0.24984E+01
  rms(prec ) = 0.32319E+01
  weight for this iteration     100.00

 eigenvalues of (default mixing * dielectric matrix)
  average eigenvalue GAMMA=   0.8395
  2.2043  0.6727  0.3271  0.1541

 Free energy of the ion-electron system (eV)
  ---------------------------------------------------
  alpha Z        PSCENC =       305.89839443
  Ewald energy   TEWEN  =     98129.21404172
  -Hartree energ DENC   =   -110019.66948182
  -exchange      EXHF   =         0.00000000
  -V(xc)+E(xc)   XCENC  =        42.83738206
  PAW double counting   =     14174.77274463   -13760.57676528
  entropy T*S    EENTRO =         0.00471883
  eigenvalues    EBANDS =      -684.78867278
  atomic energy  EATOM  =     11706.16234457
  Solvation  Ediel_sol  =         0.00000000
  ---------------------------------------------------
  free energy    TOTEN  =      -106.14529364 eV

  energy without entropy =     -106.15001247  energy(sigma->0) =     -106.14686658


--------------------------------------------------------------------------------------------------------




--------------------------------------- Iteration      1(  10)  ---------------------------------------


    POTLOK:  cpu time    0.0169: real time    0.0169
    SETDIJ:  cpu time    0.0021: real time    0.0021
     EDDAV:  cpu time   11.5633: real time   11.5650
       DOS:  cpu time    0.0016: real time    0.0016
    CHARGE:  cpu time    0.3174: real time    0.3174
    MIXING:  cpu time    0.0007: real time    0.0007
    --------------------------------------------
      LOOP:  cpu time   11.9020: real time   11.9037

 eigenvalue-minimisations  : 12864
 total energy-change (2. order) : 0.4251873E+01  (-0.7851125E+01)
 number of electron     161.0000088 magnetization 
 augmentation part       50.2028722 magnetization 

 Broyden mixing:
  rms(total) = 0.21260E+01    rms(broyden)= 0.21259E+01
  rms(prec ) = 0.24123E+01
  weight for this iteration     100.00

 eigenvalues of (default mixing * dielectric matrix)
  average eigenvalue GAMMA=   0.7396
  2.2757  0.7584  0.2922  0.2173  0.1546

 Free energy of the ion-electron system (eV)
  ---------------------------------------------------
  alpha Z        PSCENC =       305.89839443
  Ewald energy   TEWEN  =     98129.21404172
  -Hartree energ DENC   =   -110032.89408304
  -exchange      EXHF   =         0.00000000
  -V(xc)+E(xc)   XCENC  =        42.93450860
  PAW double counting   =     14361.56927084   -13948.00937273
  entropy T*S    EENTRO =        -0.00706886
  eigenvalues    EBANDS =      -666.76145601
  atomic energy  EATOM  =     11706.16234457
  Solvation  Ediel_sol  =         0.00000000
  ---------------------------------------------------
  free energy    TOTEN  =      -101.89342048 eV

  energy without entropy =     -101.88635162  energy(sigma->0) =     -101.89106419


--------------------------------------------------------------------------------------------------------




--------------------------------------- Iteration      1(  11)  ---------------------------------------


    POTLOK:  cpu time    0.0173: real time    0.0219
    SETDIJ:  cpu time    0.0023: real time    0.0023
     EDDAV:  cpu time   13.0791: real time   13.0811
       DOS:  cpu time    0.0018: real time    0.0018
    CHARGE:  cpu time    0.3180: real time    0.3181
    MIXING:  cpu time    0.0008: real time    0.0008
    --------------------------------------------
      LOOP:  cpu time   13.4193: real time   13.4259

 eigenvalue-minimisations  : 14784
 total energy-change (2. order) : 0.4592800E+01  (-0.2478917E+01)
 number of electron     161.0000095 magnetization 
 augmentation part       50.2486496 magnetization 

 Broyden mixing:
  rms(total) = 0.10677E+01    rms(broyden)= 0.10676E+01
  rms(prec ) = 0.12536E+01
  weight for this iteration     100.00

 eigenvalues of (default mixing * dielectric matrix)
  average eigenvalue GAMMA=   0.6840
  2.1404  0.7487  0.4364  0.3227  0.3227  0.1330

 Free energy of the ion-electron system (eV)
  ---------------------------------------------------
  alpha Z        PSCENC =       305.89839443
  Ewald energy   TEWEN  =     98129.21404172
  -Hartree energ DENC   =   -110027.77523769
  -exchange      EXHF   =         0.00000000
  -V(xc)+E(xc)   XCENC  =        43.09523270
  PAW double counting   =     14462.48818017   -14049.29244140
  entropy T*S    EENTRO =        -0.02354777
  eigenvalues    EBANDS =      -667.06758674
  atomic energy  EATOM  =     11706.16234457
  Solvation  Ediel_sol  =         0.00000000
  ---------------------------------------------------
  free energy    TOTEN  =       -97.30062001 eV

  energy without entropy =      -97.27707224  energy(sigma->0) =      -97.29277075


--------------------------------------------------------------------------------------------------------




--------------------------------------- Iteration      1(  12)  ---------------------------------------


    POTLOK:  cpu time    0.0174: real time    0.0187
    SETDIJ:  cpu time    0.0021: real time    0.0021
     EDDAV:  cpu time   10.8290: real time   10.8306
       DOS:  cpu time    0.0017: real time    0.0017
    CHARGE:  cpu time    0.3177: real time    0.3178
    MIXING:  cpu time    0.0009: real time    0.0009
    --------------------------------------------
      LOOP:  cpu time   11.1689: real time   11.1718

 eigenvalue-minimisations  : 12120
 total energy-change (2. order) : 0.2537120E+00  (-0.1299943E+01)
 number of electron     161.0000084 magnetization 
 augmentation part       50.1653876 magnetization 

 Broyden mixing:
  rms(total) = 0.91552E+00    rms(broyden)= 0.91544E+00
  rms(prec ) = 0.97399E+00
  weight for this iteration     100.00

 eigenvalues of (default mixing * dielectric matrix)
  average eigenvalue GAMMA=   0.6580
  2.0775  0.7350  0.7350  0.4420  0.2420  0.2420  0.1322

 Free energy of the ion-electron system (eV)
  ---------------------------------------------------
  alpha Z        PSCENC =       305.89839443
  Ewald energy   TEWEN  =     98129.21404172
  -Hartree energ DENC   =   -110024.09060559
  -exchange      EXHF   =         0.00000000
  -V(xc)+E(xc)   XCENC  =        43.20251828
  PAW double counting   =     14410.60100610   -13996.64252170
  entropy T*S    EENTRO =        -0.00197301
  eigenvalues    EBANDS =      -671.39011277
  atomic energy  EATOM  =     11706.16234457
  Solvation  Ediel_sol  =         0.00000000
  ---------------------------------------------------
  free energy    TOTEN  =       -97.04690797 eV

  energy without entropy =      -97.04493496  energy(sigma->0) =      -97.04625030


--------------------------------------------------------------------------------------------------------




--------------------------------------- Iteration      1(  13)  ---------------------------------------


    POTLOK:  cpu time    0.0181: real time    0.0211
    SETDIJ:  cpu time    0.0021: real time    0.0021
     EDDAV:  cpu time   13.1013: real time   13.1030
       DOS:  cpu time    0.0017: real time    0.0017
    CHARGE:  cpu time    0.3179: real time    0.3179
    MIXING:  cpu time    0.0008: real time    0.0008
    --------------------------------------------
      LOOP:  cpu time   13.4419: real time   13.4466

 eigenvalue-minimisations  : 14976
 total energy-change (2. order) : 0.5519341E+00  (-0.2552987E+00)
 number of electron     161.0000085 magnetization 
 augmentation part       50.1130289 magnetization 

 Broyden mixing:
  rms(total) = 0.49519E+00    rms(broyden)= 0.49517E+00
  rms(prec ) = 0.56501E+00
  weight for this iteration     100.00

 eigenvalues of (default mixing * dielectric matrix)
  average eigenvalue GAMMA=   0.6691
  2.0654  0.8698  0.7148  0.7148  0.2936  0.2936  0.2679  0.1328

 Free energy of the ion-electron system (eV)
  ---------------------------------------------------
  alpha Z        PSCENC =       305.89839443
  Ewald energy   TEWEN  =     98129.21404172
  -Hartree energ DENC   =   -110030.58652745
  -exchange      EXHF   =         0.00000000
  -V(xc)+E(xc)   XCENC  =        43.31368349
  PAW double counting   =     14377.40444786   -13963.06203088
  entropy T*S    EENTRO =        -0.01631186
  eigenvalues    EBANDS =      -664.82301573
  atomic energy  EATOM  =     11706.16234457
  Solvation  Ediel_sol  =         0.00000000
  ---------------------------------------------------
  free energy    TOTEN  =       -96.49497385 eV

  energy without entropy =      -96.47866199  energy(sigma->0) =      -96.48953656


--------------------------------------------------------------------------------------------------------




--------------------------------------- Iteration      1(  14)  ---------------------------------------


    POTLOK:  cpu time    0.0168: real time    0.0169
    SETDIJ:  cpu time    0.0021: real time    0.0021
     EDDAV:  cpu time   11.6510: real time   11.6525
       DOS:  cpu time    0.0018: real time    0.0018
    CHARGE:  cpu time    0.3173: real time    0.3173
    MIXING:  cpu time    0.0009: real time    0.0009
    --------------------------------------------
      LOOP:  cpu time   11.9899: real time   11.9914

 eigenvalue-minimisations  : 13152
 total energy-change (2. order) : 0.1620365E+00  (-0.1842914E+00)
 number of electron     161.0000087 magnetization 
 augmentation part       50.0946703 magnetization 

 Broyden mixing:
  rms(total) = 0.33733E+00    rms(broyden)= 0.33728E+00
  rms(prec ) = 0.35718E+00
  weight for this iteration     100.00

 eigenvalues of (default mixing * dielectric matrix)
  average eigenvalue GAMMA=   0.6452
  2.0302  0.8613  0.8613  0.8087  0.3788  0.2638  0.2638  0.1329  0.2059

 Free energy of the ion-electron system (eV)
  ---------------------------------------------------
  alpha Z        PSCENC =       305.89839443
  Ewald energy   TEWEN  =     98129.21404172
  -Hartree energ DENC   =   -110038.09282750
  -exchange      EXHF   =         0.00000000
  -V(xc)+E(xc)   XCENC  =        43.26991922
  PAW double counting   =     14350.41349644   -13936.18286894
  entropy T*S    EENTRO =        -0.01106034
  eigenvalues    EBANDS =      -657.00437693
  atomic energy  EATOM  =     11706.16234457
  Solvation  Ediel_sol  =         0.00000000
  ---------------------------------------------------
  free energy    TOTEN  =       -96.33293733 eV

  energy without entropy =      -96.32187699  energy(sigma->0) =      -96.32925055


--------------------------------------------------------------------------------------------------------




--------------------------------------- Iteration      1(  15)  ---------------------------------------


    POTLOK:  cpu time    0.0171: real time    0.0171
    SETDIJ:  cpu time    0.0021: real time    0.0021
     EDDAV:  cpu time   11.2936: real time   11.2952
       DOS:  cpu time    0.0018: real time    0.0018
    CHARGE:  cpu time    0.3168: real time    0.3169
    MIXING:  cpu time    0.0009: real time    0.0009
    --------------------------------------------
      LOOP:  cpu time   11.6323: real time   11.6340

 eigenvalue-minimisations  : 12696
 total energy-change (2. order) : 0.2465378E-01  (-0.1543268E-01)
 number of electron     161.0000088 magnetization 
 augmentation part       50.0770266 magnetization 

 Broyden mixing:
  rms(total) = 0.24514E+00    rms(broyden)= 0.24513E+00
  rms(prec ) = 0.26976E+00
  weight for this iteration     100.00

 eigenvalues of (default mixing * dielectric matrix)
  average eigenvalue GAMMA=   0.7731
  1.7254  1.7254  1.5989  0.6473  0.6473  0.4484  0.2811  0.2811  0.2436  0.1329

 Free energy of the ion-electron system (eV)
  ---------------------------------------------------
  alpha Z        PSCENC =       305.89839443
  Ewald energy   TEWEN  =     98129.21404172
  -Hartree energ DENC   =   -110041.99059616
  -exchange      EXHF   =         0.00000000
  -V(xc)+E(xc)   XCENC  =        43.28416807
  PAW double counting   =     14317.16849873   -13902.83895618
  entropy T*S    EENTRO =        -0.01417941
  eigenvalues    EBANDS =      -653.19199932
  atomic energy  EATOM  =     11706.16234457
  Solvation  Ediel_sol  =         0.00000000
  ---------------------------------------------------
  free energy    TOTEN  =       -96.30828354 eV

  energy without entropy =      -96.29410414  energy(sigma->0) =      -96.30355707


--------------------------------------------------------------------------------------------------------




--------------------------------------- Iteration      1(  16)  ---------------------------------------


    POTLOK:  cpu time    0.0177: real time    0.0230
    SETDIJ:  cpu time    0.0021: real time    0.0021
     EDDAV:  cpu time   12.2828: real time   12.2846
       DOS:  cpu time    0.0018: real time    0.0018
    CHARGE:  cpu time    0.3174: real time    0.3174
    MIXING:  cpu time    0.0011: real time    0.0011
    --------------------------------------------
      LOOP:  cpu time   12.6229: real time   12.6300

 eigenvalue-minimisations  : 13824
 total energy-change (2. order) : 0.2352249E-01  (-0.1860483E-01)
 number of electron     161.0000087 magnetization 
 augmentation part       50.0682582 magnetization 

 Broyden mixing:
  rms(total) = 0.13282E+00    rms(broyden)= 0.13280E+00
  rms(prec ) = 0.14149E+00
  weight for this iteration     100.00

 eigenvalues of (default mixing * dielectric matrix)
  average eigenvalue GAMMA=   0.8214
[...]
     86      -0.2888     -0.01471
     87       0.7766     -0.00000
     88       1.3590     -0.00000
     89       1.3670     -0.00000
     90       1.5489     -0.00000
     91       1.8092     -0.00000
     92       1.8596     -0.00000
     93       2.4572     -0.00000
     94       2.9228     -0.00000
     95       3.0653     -0.00000
     96       3.8658     -0.00000

 k-point    51 :      -0.4375    0.4375    0.0000
  band No.  band energies     occupation 
      1      -8.1938      2.00000
      2      -8.1459      2.00000
      3      -7.2859      2.00000
      4      -7.1472      2.00000
      5      -6.6929      2.00000
      6      -6.5132      2.00000
      7      -6.4310      2.00000
      8      -6.3453      2.00000
      9      -6.2328      2.00000
     10      -6.1732      2.00000
     11      -6.0991      2.00000
     12      -6.0542      2.00000
     13      -6.0361      2.00000
     14      -5.8871      2.00000
     15      -5.7733      2.00000
     16      -5.6536      2.00000
     17      -5.5711      2.00000
     18      -5.5442      2.00000
     19      -5.4400      2.00000
     20      -5.4056      2.00000
     21      -5.2975      2.00000
     22      -5.2209      2.00000
     23      -5.1591      2.00000
     24      -5.1159      2.00000
     25      -5.0613      2.00000
     26      -5.0191      2.00000
     27      -4.9737      2.00000
     28      -4.9021      2.00000
     29      -4.7320      2.00000
     30      -4.6607      2.00000
     31      -4.5695      2.00000
     32      -4.5335      2.00000
     33      -4.4774      2.00000
     34      -4.4451      2.00000
     35      -4.3602      2.00000
     36      -4.3083      2.00000
     37      -4.2115      2.00000
     38      -4.1528      2.00000
     39      -4.0590      2.00000
     40      -4.0468      2.00000
     41      -3.9976      2.00000
     42      -3.9695      2.00000
     43      -3.8364      2.00000
     44      -3.7690      2.00000
     45      -3.7020      2.00000
     46      -3.6283      2.00000
     47      -3.5732      2.00000
     48      -3.5424      2.00000
     49      -3.5136      2.00000
     50      -3.4917      2.00000
     51      -3.4633      2.00000
     52      -3.2864      2.00000
     53      -3.1626      2.00000
     54      -3.0476      2.00000
     55      -2.8949      2.00000
     56      -2.8279      2.00000
     57      -2.7734      2.00000
     58      -2.6988      2.00000
     59      -2.6421      2.00000
     60      -2.5713      2.00000
     61      -2.4712      2.00000
     62      -2.4203      2.00000
     63      -2.3312      2.00000
     64      -2.2513      2.00000
     65      -2.2057      2.00000
     66      -2.1264      2.00000
     67      -2.1107      2.00000
     68      -2.0457      2.00000
     69      -1.9900      2.00000
     70      -1.9115      2.00000
     71      -1.8418      2.00000
     72      -1.7183      2.00000
     73      -1.6888      2.00000
     74      -1.5523      2.00000
     75      -1.4564      2.00000
     76      -1.4170      2.00000
     77      -1.2031      2.00188
     78      -1.0603      2.02647
     79      -1.0248      2.04115
     80      -0.8675      2.01089
     81      -0.7603      1.52901
     82      -0.6861      0.93406
     83      -0.6274      0.47026
     84      -0.5282      0.00603
     85      -0.3670     -0.04293
     86      -0.2512     -0.00755
     87       0.3553     -0.00000
     88       0.5021     -0.00000
     89       0.8720     -0.00000
     90       1.5064     -0.00000
     91       1.5815     -0.00000
     92       2.4973     -0.00000
     93       2.7611     -0.00000
     94       3.2373     -0.00000
     95       3.6074     -0.00000
     96       4.0441     -0.00000

 k-point    52 :      -0.4375    0.1250    0.0000
  band No.  band energies     occupation 
      1      -8.2038      2.00000
      2      -8.1384      2.00000
      3      -7.2851      2.00000
      4      -7.1495      2.00000
      5      -6.6919      2.00000
      6      -6.5270      2.00000
      7      -6.4272      2.00000
      8      -6.3437      2.00000
      9      -6.2524      2.00000
     10      -6.1643      2.00000
     11      -6.1080      2.00000
     12      -6.0446      2.00000
     13      -6.0248      2.00000
     14      -5.8670      2.00000
     15      -5.7959      2.00000
     16      -5.6254      2.00000
     17      -5.5880      2.00000
     18      -5.5441      2.00000
     19      -5.4401      2.00000
     20      -5.4040      2.00000
     21      -5.2658      2.00000
     22      -5.1980      2.00000
     23      -5.1626      2.00000
     24      -5.0887      2.00000
     25      -5.0771      2.00000
     26      -5.0581      2.00000
     27      -4.9848      2.00000
     28      -4.9543      2.00000
     29      -4.7262      2.00000
     30      -4.7193      2.00000
     31      -4.5742      2.00000
     32      -4.5480      2.00000
     33      -4.4922      2.00000
     34      -4.4644      2.00000
     35      -4.3630      2.00000
     36      -4.2360      2.00000
     37      -4.2251      2.00000
     38      -4.1618      2.00000
     39      -4.0283      2.00000
     40      -3.9942      2.00000
     41      -3.9887      2.00000
     42      -3.9272      2.00000
     43      -3.8184      2.00000
     44      -3.7891      2.00000
     45      -3.6663      2.00000
     46      -3.6286      2.00000
     47      -3.5888      2.00000
     48      -3.5613      2.00000
     49      -3.5134      2.00000
     50      -3.4689      2.00000
     51      -3.4364      2.00000
     52      -3.2848      2.00000
     53      -3.2122      2.00000
     54      -3.0283      2.00000
     55      -2.9195      2.00000
     56      -2.8664      2.00000
     57      -2.7771      2.00000
     58      -2.6780      2.00000
     59      -2.6204      2.00000
     60      -2.5484      2.00000
     61      -2.4357      2.00000
     62      -2.3834      2.00000
     63      -2.3523      2.00000
     64      -2.3189      2.00000
     65      -2.2069      2.00000
     66      -2.1211      2.00000
     67      -2.0946      2.00000
     68      -2.0306      2.00000
     69      -1.9963      2.00000
     70      -1.9118      2.00000
     71      -1.8217      2.00000
     72      -1.7572      2.00000
     73      -1.6892      2.00000
     74      -1.5884      2.00000
     75      -1.4757      2.00000
     76      -1.3790      2.00001
     77      -1.2877      2.00022
     78      -1.0612      2.02616
     79      -0.9954      2.05466
     80      -0.8170      1.85343
     81      -0.7924      1.73157
     82      -0.6959      1.01631
     83      -0.5573      0.09219
     84      -0.4781     -0.06305
     85      -0.4066     -0.06073
     86      -0.3542     -0.03721
     87       0.3633     -0.00000
     88       0.4975     -0.00000
     89       0.9142     -0.00000
     90       1.5034     -0.00000
     91       1.6072     -0.00000
     92       2.4978     -0.00000
     93       2.7505     -0.00000
     94       3.2502     -0.00000
     95       3.5953     -0.00000
     96       4.0129     -0.00000


--------------------------------------------------------------------------------------------------------


 soft charge-density along one line, spin component           1
         0         1         2         3         4         5         6         7         8         9
 total charge-density along one line
 
 pseudopotential strength for first ion, spin component:           1
 -8.017  -0.001  -0.000  -0.005  -0.000  -8.164  -0.001  -0.000
 -0.001  -7.937   0.000   0.000  -0.006  -0.001  -8.086   0.000
 -0.000   0.000  -7.927  -0.000   0.000  -0.000   0.000  -8.076
 -0.005   0.000  -0.000  -7.937  -0.001  -0.005   0.000  -0.000
 -0.000  -0.006   0.000  -0.001  -8.017  -0.000  -0.006   0.000
 -8.164  -0.001  -0.000  -0.005  -0.000  -8.295  -0.001  -0.000
 -0.001  -8.086   0.000   0.000  -0.006  -0.001  -8.219   0.000
 -0.000   0.000  -8.076  -0.000   0.000  -0.000   0.000  -8.209
 -0.005   0.000  -0.000  -8.086  -0.001  -0.005   0.000  -0.000
 -0.000  -0.006   0.000  -0.001  -8.164  -0.000  -0.006   0.000
 -0.000  -0.000  -0.026   0.000   0.000  -0.000  -0.000  -0.025
 -0.000  -0.000  -0.037   0.000   0.000  -0.000  -0.000  -0.037
  0.000  -0.001   0.000  -0.000   0.000   0.000  -0.001   0.000
 -0.000  -0.000  -0.003   0.000   0.000  -0.000  -0.000  -0.002
  0.000  -0.000  -0.000  -0.001   0.000   0.000  -0.000  -0.000
  0.000   0.000   0.000  -0.000   0.001   0.000   0.001   0.000
 -0.000  -0.000  -0.002   0.000   0.000  -0.000  -0.000  -0.001
  0.000  -0.000  -0.000   0.000   0.000   0.000  -0.000  -0.000
 total augmentation occupancy for first ion, spin component:           1
  4.805  -0.011  -0.014  -0.020  -0.012  -2.980   0.008   0.011  -0.061   0.009  -0.001   0.001  -0.000   0.001  -0.049   0.000
 -0.011   4.825  -0.003  -0.006  -0.032   0.008  -2.541   0.002   0.005  -0.050   0.004  -0.002  -0.219   0.001  -0.000   0.011
 -0.014  -0.003   5.468   0.005   0.008   0.011   0.002  -3.271  -0.004  -0.006   0.869  -0.074   0.000  -0.376  -0.001   0.000
 -0.020  -0.006   0.005   4.832  -0.011  -0.059   0.005  -0.004  -2.546   0.008  -0.006   0.003  -0.000  -0.001  -0.219  -0.000
 -0.012  -0.032   0.008  -0.011   4.791   0.009  -0.052  -0.006   0.008  -2.969   0.000  -0.001  -0.049  -0.000  -0.000   0.002
 -2.980   0.008   0.011  -0.059   0.009   3.017  -0.006  -0.009   0.120  -0.007   0.001  -0.002   0.000  -0.001   0.045  -0.000
  0.008  -2.541   0.002   0.005  -0.052  -0.006   2.220  -0.002  -0.003   0.113  -0.002   0.001   0.203  -0.001   0.000  -0.009
  0.011   0.002  -3.271  -0.004  -0.006  -0.009  -0.002   3.021   0.004   0.005  -0.793   0.085  -0.000   0.373   0.000   0.000
 -0.061   0.005  -0.004  -2.546   0.008   0.120  -0.003   0.004   2.224  -0.006   0.004  -0.001   0.000   0.001   0.203   0.000
  0.009  -0.050  -0.006   0.008  -2.969  -0.007   0.113   0.005  -0.006   3.009  -0.001   0.001   0.045   0.000   0.000  -0.001
 -0.001   0.004   0.869  -0.006   0.000   0.001  -0.002  -0.793   0.004  -0.001   2.548  -0.582  -0.000   0.164   0.000  -0.000
  0.001  -0.002  -0.074   0.003  -0.001  -0.002   0.001   0.085  -0.001   0.001  -0.582   0.172   0.000  -0.076  -0.000  -0.000
 -0.000  -0.219   0.000  -0.000  -0.049   0.000   0.203  -0.000   0.000   0.045  -0.000   0.000   0.233  -0.000   0.000  -0.007
  0.001   0.001  -0.376  -0.001  -0.000  -0.001  -0.001   0.373   0.001   0.000   0.164  -0.076  -0.000   0.130   0.000   0.000
 -0.049  -0.000  -0.001  -0.219  -0.000   0.045   0.000   0.000   0.203   0.000   0.000  -0.000   0.000   0.000   0.233  -0.000
  0.000   0.011   0.000  -0.000   0.002  -0.000  -0.009   0.000   0.000  -0.001  -0.000  -0.000  -0.007   0.000  -0.000   0.000
 -0.000  -0.000   0.009   0.000   0.000  -0.000   0.000  -0.011  -0.000   0.000  -0.009   0.003   0.000  -0.004  -0.000  -0.000
  0.002  -0.000  -0.000   0.011   0.000  -0.001   0.000  -0.000  -0.009  -0.000   0.000   0.000  -0.000  -0.000  -0.007   0.000


------------------------ aborting loop because EDIFF is reached ----------------------------------------



 DIPCOR: dipole corrections for dipol
 direction  3 min pos   282,
 dipolmoment           0.000000      0.000000     -0.027850 electrons x Angstroem
 Tr[quadrupol]      -945.701772

 energy correction for charged system         0.000000 eV
 dipol+quadrupol energy correction            0.000085 eV
 added-field ion interaction          0.000000 eV  (added to PSCEN)

 
  *************** adding dipol energy to TOTEN NOW **************** 
    CHARGE:  cpu time    0.3174: real time    0.3174
    FORLOC:  cpu time    0.0027: real time    0.0027
    FORNL :  cpu time    4.6322: real time    4.6327
    STRESS:  cpu time    8.3061: real time    8.3071
    FORCOR:  cpu time    0.0181: real time    0.0181
    FORHAR:  cpu time    0.0060: real time    0.0060
    MIXING:  cpu time    0.0023: real time    0.0023
    OFIELD:  cpu time    0.0000: real time    0.0000

  FORCE on cell =-STRESS in cart. coord.  units (eV):
  Direction    XX          YY          ZZ          XY          YZ          ZX
  --------------------------------------------------------------------------------------
  Alpha Z   305.89839   305.89839   305.89839
  Ewald  107000.08075106999.31450************    -0.66359     0.86953    -1.50607
  Hartree109348.39823109347.60227************    -0.68932     0.74313    -1.28715
  E(xc)    -712.90747  -712.85705  -717.31225     0.04375    -0.02297     0.03977
  Local  ************************221655.44275     2.08132    -1.94750     3.37307
  n-local    61.27987    54.52486    45.15077     2.21494    -0.31691    -0.29012
  augment   835.31501   834.87277   859.85532    -0.38456     0.13907    -0.24175
  Kinetic  2296.36672  2291.45669  2353.58409     0.41749    -0.08057    -0.94493
  Fock        0.00000     0.00000     0.00000     0.00000     0.00000     0.00000
  -------------------------------------------------------------------------------------
  Total     -11.41586   -11.60463    -1.83975    -0.16348     0.21657    -0.37510
  in kB     -22.19344   -22.56042    -3.57663    -0.31782     0.42102    -0.72923
  external pressure =      -16.11 kB  Pullay stress =        0.00 kB


 VOLUME and BASIS-vectors are now :
 -----------------------------------------------------------------------------
  energy-cutoff  :      350.00
  volume of cell :      824.13
      direct lattice vectors                 reciprocal lattice vectors
     5.557859300  0.000000000  0.000000000     0.179925390 -0.103879972  0.000000000
     2.778929650  4.813247345  0.000000000     0.000000000  0.207759944  0.000000000
     0.000000000  0.000000000 30.806959674     0.000000000  0.000000000  0.032460198

  length of vectors
     5.557859300  5.557859300 30.806959674     0.207759944  0.207759944  0.032460198


 FORCES acting on ions
    electron-ion (+dipol)            ewald-force                    non-local-force                 convergence-correction
 -----------------------------------------------------------------------------------------------
   -.276E+00 0.159E+00 0.310E+04   0.263E+00 -.152E+00 -.310E+04   0.997E-02 -.576E-02 -.289E+00   -.643E-04 0.371E-04 0.793E-02
   0.246E+00 -.238E+01 0.282E+04   -.239E+00 0.251E+01 -.282E+04   -.560E-02 0.103E-02 -.100E+01   0.523E-04 -.195E-03 0.732E-02
   -.217E+01 0.125E+01 0.282E+04   0.229E+01 -.132E+01 -.282E+04   -.132E-01 0.761E-02 -.116E+01   -.200E-03 0.115E-03 0.735E-02
   0.219E+01 0.978E+00 0.282E+04   -.229E+01 -.105E+01 -.282E+04   -.369E-02 0.433E-02 -.100E+01   0.195E-03 0.522E-04 0.732E-02
   -.550E+01 0.234E+01 0.903E+03   0.558E+01 -.255E+01 -.902E+03   0.533E-01 0.148E+00 -.558E+00   -.479E-03 -.609E-03 0.334E-02
   0.548E+01 -.317E+01 0.908E+03   -.558E+01 0.322E+01 -.907E+03   -.446E-01 0.258E-01 -.446E+00   0.466E-03 -.269E-03 0.296E-02
   -.477E+01 0.359E+01 0.903E+03   0.499E+01 -.356E+01 -.902E+03   -.102E+00 -.120E+00 -.558E+00   0.288E-03 0.720E-03 0.334E-02
   0.462E+01 -.267E+01 0.926E+03   -.476E+01 0.275E+01 -.926E+03   0.581E-01 -.336E-01 0.136E-01   -.269E-03 0.156E-03 0.396E-02
   -.137E+00 0.279E+00 -.948E+03   0.146E+00 -.688E+00 0.948E+03   0.424E-01 0.427E+00 0.196E+00   -.752E-03 -.250E-03 -.858E-02
   0.483E-01 -.279E-01 -.943E+03   -.319E-01 0.184E-01 0.943E+03   -.412E-01 0.238E-01 0.215E+00   0.759E-03 -.438E-03 -.832E-02
   -.310E+00 -.204E-01 -.948E+03   0.669E+00 0.217E+00 0.948E+03   -.349E+00 -.250E+00 0.196E+00   -.160E-03 0.777E-03 -.858E-02
   -.419E+01 0.242E+01 -.279E+04   0.421E+01 -.243E+01 0.279E+04   -.383E-01 0.221E-01 -.646E+01   0.245E-04 -.141E-04 -.387E-02
   0.465E+01 -.700E+00 -.277E+04   -.495E+01 0.412E+00 0.277E+04   0.165E+00 0.176E+00 0.119E+01   -.526E-04 -.272E-03 -.382E-02
   -.292E+01 0.169E+01 -.278E+04   0.280E+01 -.162E+01 0.278E+04   0.998E-01 -.576E-01 0.119E+01   -.245E-03 0.142E-03 -.416E-02
   0.293E+01 -.368E+01 -.277E+04   -.283E+01 0.408E+01 0.277E+04   -.701E-01 -.231E+00 0.119E+01   0.209E-03 0.181E-03 -.382E-02
   0.101E+00 -.581E-01 -.853E+03   -.339E+00 0.196E+00 0.853E+03   0.314E+00 -.181E+00 -.556E-01   0.158E-03 -.913E-04 -.724E-02
   -.551E-01 0.318E-01 -.375E+03   0.556E-01 -.321E-01 0.378E+03   -.326E-02 0.188E-02 -.310E+01   0.303E-05 -.175E-05 -.112E-03
 -----------------------------------------------------------------------------------------------
   -.715E-01 0.413E-01 0.104E+02   -.112E-13 0.118E-13 -.455E-12   0.715E-01 -.413E-01 -.104E+02   -.677E-04 0.391E-04 -.498E-02
 
 
 POSITION                                       TOTAL-FORCE (eV/Angst)
 -----------------------------------------------------------------------------------
      0.00000      0.00000     12.00000        -0.003457      0.001996     -1.024298
      2.77893      0.00000     12.00000         0.002251      0.125045      0.077141
      1.38946      2.40662     12.00000         0.103701     -0.059872      0.183347
      4.16839      2.40662     12.00000        -0.107167     -0.064472      0.077141
      1.38832      0.80154     14.33833         0.129210     -0.061321      0.446681
      4.16954      0.80154     14.33833        -0.134446      0.077623      0.131374
      2.77893      3.21016     14.33833         0.117710     -0.081238      0.446681
      5.55786      3.20883     14.30267        -0.081203      0.046883      0.082436
      5.55786      1.59830     16.63736         0.050685      0.017474      0.045934
      2.77893      1.60442     16.63406        -0.024047      0.013883      0.206701
      6.95262      4.01410     16.63736         0.010210     -0.052631      0.045934
      0.00000      0.00000     19.07085        -0.020001      0.011548     -0.212996
      5.55786      4.80856     18.94595        -0.129489     -0.112426     -0.235137
      6.94326      2.40897     18.94595        -0.019460      0.011235      0.069673
      4.17246      2.40897     18.94595         0.032619      0.168353     -0.235137
      4.16310      4.01410     16.63736         0.075602     -0.043649     -0.175520
      0.00000      0.00000     20.62632        -0.002717      0.001569      0.070047
 -----------------------------------------------------------------------------------
    total drift:                               -0.000035      0.000021     -0.004531


--------------------------------------------------------------------------------------------------------



  FREE ENERGIE OF THE ION-ELECTRON SYSTEM (eV)
  ---------------------------------------------------
  free  energy   TOTEN  =       -96.27233869 eV

  energy  without entropy=      -96.25469979  energy(sigma->0) =      -96.26645906
 


--------------------------------------------------------------------------------------------------------


    POTLOK:  cpu time    0.0198: real time    0.0198


--------------------------------------------------------------------------------------------------------


     LOOP+:  cpu time  371.7511: real time  371.8943
    4ORBIT:  cpu time    0.0000: real time    0.0000

 total amount of memory used by VASP MPI-rank0   455244. kBytes
=======================================================================

   base      :      30000. kBytes
   nonl-proj :     372843. kBytes
   fftplans  :       2015. kBytes
   grid      :       8030. kBytes
   one-center:        264. kBytes
   wavefun   :      42092. kBytes
 
  
  
 General timing and accounting informations for this job:
 ========================================================
  
                  Total CPU time used (sec):      377.406
                            User time (sec):      375.869
                          System time (sec):        1.537
                         Elapsed time (sec):      377.632
  
                   Maximum memory used (kb):      497300.
                   Average memory used (kb):           0.
  
                          Minor page faults:        79864
                          Major page faults:           33
                 Voluntary context switches:         2044
