       N       E                     dE             d eps       ncg     rms          rms(c)
DAV:   1     0.980052420610E+03    0.98005E+03   -0.55745E+04  9984   0.102E+03
DAV:   2    -0.425103759590E+02   -0.10226E+04   -0.99238E+03 14568   0.249E+02
DAV:   3    -0.101240788515E+03   -0.58730E+02   -0.57045E+02 12504   0.601E+01
DAV:   4    -0.102511743489E+03   -0.12710E+01   -0.12649E+01 14352   0.101E+01
DAV:   5    -0.102543819192E+03   -0.32076E-01   -0.32061E-01 14976   0.126E+00    0.418E+01
DAV:   6    -0.983320942671E+02    0.42117E+01   -0.33727E+01 12072   0.203E+01    0.305E+01
DAV:   7    -0.133471002699E+03   -0.35139E+02   -0.33367E+02 15144   0.668E+01    0.523E+01
DAV:   8    -0.110395099911E+03    0.23076E+02   -0.12546E+02 15912   0.435E+01    0.330E+01
DAV:   9    -0.105411449227E+03    0.49837E+01   -0.13953E+02 13320   0.398E+01    0.262E+01
DAV:  10    -0.107120738889E+03   -0.17093E+01   -0.99552E+01 15744   0.481E+01    0.273E+01
DAV:  11    -0.968213661762E+02    0.10299E+02   -0.38876E+01 14424   0.190E+01    0.103E+01
DAV:  12    -0.973322625542E+02   -0.51090E+00   -0.12921E+01 15000   0.132E+01    0.130E+01
DAV:  13    -0.959789692007E+02    0.13533E+01   -0.11710E+01 13872   0.811E+00    0.515E+00
DAV:  14    -0.958843597469E+02    0.94609E-01   -0.15855E+00 12024   0.450E+00    0.427E+00
DAV:  15    -0.958856300465E+02   -0.12703E-02   -0.50084E-02 12432   0.783E-01    0.406E+00
DAV:  16    -0.958605189909E+02    0.25111E-01   -0.59095E-02 14784   0.879E-01    0.308E+00
DAV:  17    -0.958310279507E+02    0.29491E-01   -0.40358E-01 12240   0.193E+00    0.154E+00
DAV:  18    -0.958238602119E+02    0.71677E-02   -0.63515E-02 12192   0.955E-01    0.122E+00
DAV:  19    -0.958210372155E+02    0.28230E-02   -0.53109E-03 12144   0.281E-01    0.106E+00
DAV:  20    -0.958165564546E+02    0.44808E-02   -0.13582E-02 12408   0.416E-01    0.667E-01
DAV:  21    -0.958148341662E+02    0.17223E-02   -0.36751E-03 11688   0.249E-01    0.502E-01
DAV:  22    -0.958143685963E+02    0.46557E-03   -0.64011E-04 14064   0.107E-01    0.464E-01
DAV:  23    -0.958136553463E+02    0.71325E-03   -0.59598E-04 14472   0.101E-01    0.373E-01
DAV:  24    -0.958125694728E+02    0.10859E-02   -0.28598E-03 15288   0.163E-01    0.177E-01
DAV:  25    -0.958123896829E+02    0.17979E-03   -0.29764E-04 14808   0.604E-02    0.122E-01
DAV:  26    -0.958123879254E+02    0.17574E-05   -0.19980E-04 11712   0.487E-02    0.115E-01
DAV:  27    -0.958123222761E+02    0.65649E-04   -0.28005E-04 12384   0.589E-02    0.500E-02
DAV:  28    -0.958123758092E+02   -0.53533E-04   -0.85240E-05  9672   0.321E-02    0.188E-02
DAV:  29    -0.958124184971E+02   -0.42688E-04   -0.14004E-05  7824   0.123E-02    0.130E-02
DAV:  30    -0.958124698935E+02   -0.51396E-04   -0.14660E-05  7704   0.125E-02    0.169E-02
DAV:  31    -0.958125050151E+02   -0.35122E-04   -0.35613E-06  7680   0.625E-03    0.179E-02
DAV:  32    -0.958125306752E+02   -0.25660E-04   -0.48035E-06  7512   0.752E-03    0.999E-03
DAV:  33    -0.958125792763E+02   -0.48601E-04   -0.43215E-06  7536   0.580E-03    0.877E-03
DAV:  34    -0.958125847019E+02   -0.54257E-05   -0.97556E-07  7536   0.298E-03
   1 F= -.95812229E+02 E0= -.95800049E+02  d E =-.365385E-01
