   17   17    1    1
  0.4847811E+02  0.5557859E-09  0.5557859E-09  0.3080696E-08  0.5000000E-15
  1.000000000000000E-004
  CAR 
 unknown system                          
    161     52     96
 
  0.6250000E-01  0.6250000E-01  0.0000000E+00  0.1041667E-01
    1      -10.042910   1.000000
    2       -8.818176   1.000000
    3       -7.750128   1.000000
    4       -7.607201   1.000000
    5       -7.320467   1.000000
    6       -7.301379   1.000000
    7       -7.279627   1.000000
    8       -7.153427   1.000000
    9       -7.135505   1.000000
   10       -7.128776   1.000000
   11       -6.765535   1.000000
   12       -6.684291   1.000000
   13       -6.675294   1.000000
   14       -6.645383   1.000000
   15       -6.632318   1.000000
   16       -6.482053   1.000000
   17       -6.451483   1.000000
   18       -6.411304   1.000000
   19       -6.392817   1.000000
   20       -5.928133   1.000000
   21       -5.679814   1.000000
   22       -5.669097   1.000000
   23       -5.421971   1.000000
   24       -4.823546   1.000000
   25       -4.812458   1.000000
   26       -4.687777   1.000000
   27       -4.598937   1.000000
   28       -4.590656   1.000000
   29       -4.507051   1.000000
   30       -4.451972   1.000000
   31       -4.311271   1.000000
   32       -4.223710   1.000000
   33       -4.177987   1.000000
   34       -4.066319   1.000000
   35       -4.050240   1.000000
   36       -3.909440   1.000000
   37       -3.878487   1.000000
   38       -3.837945   1.000000
   39       -3.825288   1.000000
   40       -3.806071   1.000000
   41       -3.643525   1.000000
   42       -3.591433   1.000000
   43       -3.395921   1.000000
   44       -3.379713   1.000000
   45       -3.350044   1.000000
   46       -3.254540   1.000000
   47       -3.019273   1.000000
   48       -2.969705   1.000000
   49       -2.829326   1.000000
   50       -2.735802   1.000000
   51       -2.637808   1.000000
   52       -2.321929   1.000000
   53       -2.220702   1.000000
   54       -2.207640   1.000000
   55       -2.063225   1.000000
   56       -2.054764   1.000000
   57       -1.742427   1.000000
   58       -1.680905   1.000000
   59       -1.598676   1.000000
   60       -1.553617   1.000000
   61       -1.465727   1.000000
   62       -1.408686   1.000002
   63       -1.397001   1.000003
   64       -1.266504   1.000157
   65       -1.117204   1.004626
   66       -1.000848   1.024120
   67       -0.983642   1.028042
   68       -0.949747   1.034192
   69       -0.905496   1.032657
   70       -0.786319   0.872605
   71       -0.698042   0.553366
   72       -0.694601   0.538879
   73       -0.668973   0.430741
   74       -0.646852   0.340190
   75       -0.582204   0.121244
   76       -0.563783   0.076384
   77       -0.539975   0.031009
   78       -0.405398  -0.031771
   79       -0.397990  -0.030342
   80       -0.368139  -0.023699
   81       -0.295963  -0.009446
   82       -0.174341  -0.000901
   83       -0.068294  -0.000057
   84       -0.028983  -0.000018
   85        0.079833  -0.000000
   86        0.170014  -0.000000
   87        0.460794  -0.000000
   88        0.486619  -0.000000
   89        1.286978  -0.000000
   90        1.469103  -0.000000
   91        1.705807  -0.000000
   92        1.743734  -0.000000
   93        1.774169  -0.000000
   94        1.875305  -0.000000
   95        2.490037  -0.000000
   96        2.678325  -0.000000
 
  0.0000000E+00  0.6250000E-01  0.0000000E+00  0.2083333E-01
    1      -10.042918   1.000000
    2       -8.818184   1.000000
    3       -7.750174   1.000000
    4       -7.607259   1.000000
    5       -7.323801   1.000000
    6       -7.292126   1.000000
    7       -7.285550   1.000000
    8       -7.153954   1.000000
    9       -7.134847   1.000000
   10       -7.128936   1.000000
   11       -6.765623   1.000000
   12       -6.682892   1.000000
   13       -6.677131   1.000000
   14       -6.642999   1.000000
   15       -6.634759   1.000000
   16       -6.480972   1.000000
   17       -6.445814   1.000000
   18       -6.421769   1.000000
   19       -6.388614   1.000000
   20       -5.928117   1.000000
   21       -5.681746   1.000000
   22       -5.667314   1.000000
   23       -5.421637   1.000000
   24       -4.830225   1.000000
   25       -4.806508   1.000000
   26       -4.687701   1.000000
   27       -4.595793   1.000000
   28       -4.592468   1.000000
   29       -4.507686   1.000000
   30       -4.451707   1.000000
   31       -4.311314   1.000000
   32       -4.223344   1.000000
   33       -4.178217   1.000000
   34       -4.064485   1.000000
   35       -4.052085   1.000000
   36       -3.911657   1.000000
   37       -3.875770   1.000000
   38       -3.837701   1.000000
   39       -3.829731   1.000000
   40       -3.802184   1.000000
   41       -3.638554   1.000000
   42       -3.597679   1.000000
   43       -3.397785   1.000000
   44       -3.375904   1.000000
   45       -3.352695   1.000000
   46       -3.255162   1.000000
   47       -2.998296   1.000000
   48       -2.981208   1.000000
   49       -2.813717   1.000000
   50       -2.775882   1.000000
   51       -2.621690   1.000000
   52       -2.319766   1.000000
   53       -2.219061   1.000000
   54       -2.204281   1.000000
   55       -2.073252   1.000000
   56       -2.049283   1.000000
   57       -1.758150   1.000000
   58       -1.686987   1.000000
   59       -1.578408   1.000000
   60       -1.529003   1.000000
   61       -1.467098   1.000000
   62       -1.416850   1.000001
   63       -1.393249   1.000003
   64       -1.300934   1.000060
   65       -1.129073   1.003710
   66       -0.997147   1.024976
   67       -0.971629   1.030580
   68       -0.941530   1.035012
   69       -0.875636   1.019289
   70       -0.804496   0.917971
   71       -0.752454   0.766815
   72       -0.698840   0.556716
   73       -0.644891   0.332420
   74       -0.631698   0.281586
   75       -0.576040   0.105282
   76       -0.568197   0.086355
   77       -0.527149   0.012221
   78       -0.405207  -0.031736
   79       -0.399929  -0.030730
   80       -0.362241  -0.022336
   81       -0.321670  -0.013724
   82       -0.153600  -0.000553
   83       -0.078187  -0.000076
   84        0.018444  -0.000004
   85        0.081087  -0.000000
   86        0.140391  -0.000000
   87        0.383319  -0.000000
   88        0.559718  -0.000000
   89        1.288612  -0.000000
   90        1.470024  -0.000000
   91        1.714118  -0.000000
   92        1.723479  -0.000000
   93        1.744103  -0.000000
   94        1.911743  -0.000000
   95        2.479955  -0.000000
   96        2.681198  -0.000000
 
  0.1875000E+00  0.6250000E-01  0.0000000E+00  0.2083333E-01
    1       -9.839347   1.000000
    2       -8.618745   1.000000
    3       -7.545365   1.000000
    4       -7.414039   1.000000
    5       -7.299938   1.000000
    6       -7.221168   1.000000
    7       -7.106972   1.000000
    8       -7.071511   1.000000
    9       -7.021607   1.000000
   10       -6.954670   1.000000
   11       -6.678668   1.000000
   12       -6.598194   1.000000
   13       -6.569312   1.000000
   14       -6.558759   1.000000
   15       -6.511226   1.000000
   16       -6.366136   1.000000
   17       -6.322204   1.000000
   18       -6.269316   1.000000
   19       -6.218808   1.000000
   20       -5.879767   1.000000
   21       -5.621905   1.000000
   22       -5.600109   1.000000
   23       -5.376939   1.000000
   24       -4.862084   1.000000
   25       -4.797791   1.000000
   26       -4.731630   1.000000
   27       -4.583526   1.000000
   28       -4.513774   1.000000
   29       -4.508319   1.000000
   30       -4.431124   1.000000
   31       -4.393710   1.000000
   32       -4.334143   1.000000
   33       -4.072148   1.000000
   34       -4.028995   1.000000
   35       -3.993833   1.000000
   36       -3.972955   1.000000
   37       -3.886139   1.000000
   38       -3.849021   1.000000
   39       -3.778956   1.000000
   40       -3.757292   1.000000
   41       -3.731349   1.000000
   42       -3.586576   1.000000
   43       -3.535803   1.000000
   44       -3.497619   1.000000
   45       -3.450043   1.000000
   46       -3.407060   1.000000
   47       -3.212787   1.000000
   48       -3.127469   1.000000
   49       -2.881020   1.000000
   50       -2.826657   1.000000
   51       -2.632632   1.000000
   52       -2.580476   1.000000
   53       -2.349415   1.000000
   54       -2.319629   1.000000
   55       -2.195465   1.000000
   56       -2.081941   1.000000
   57       -1.959109   1.000000
   58       -1.802473   1.000000
   59       -1.781964   1.000000
   60       -1.762842   1.000000
   61       -1.711251   1.000000
   62       -1.658141   1.000000
   63       -1.585762   1.000000
   64       -1.516312   1.000000
   65       -1.462253   1.000000
   66       -1.359769   1.000010
   67       -1.329418   1.000026
   68       -1.152106   1.002358
   69       -1.088169   1.007643
   70       -1.013016   1.021316
   71       -0.939976   1.035124
   72       -0.910914   1.033803
   73       -0.885490   1.025173
   74       -0.846311   0.991201
   75       -0.785883   0.871414
   76       -0.724573   0.662270
   77       -0.705238   0.583476
   78       -0.663096   0.406259
   79       -0.624093   0.253598
   80       -0.527149   0.012221
   81       -0.490834  -0.022075
   82       -0.393476  -0.029408
   83       -0.351393  -0.019870
   84       -0.247524  -0.004136
   85       -0.104365  -0.000157
   86        0.273097  -0.000000
   87        0.349908  -0.000000
   88        0.595472  -0.000000
   89        0.918156  -0.000000
   90        1.096518  -0.000000
   91        1.390144  -0.000000
   92        1.625620  -0.000000
   93        2.241124  -0.000000
   94        2.545922  -0.000000
   95        2.774115  -0.000000
   96        3.142942  -0.000000
 
  0.1250000E+00  0.1875000E+00  0.0000000E+00  0.2083333E-01
    1       -9.839324   1.000000
    2       -8.618717   1.000000
    3       -7.545115   1.000000
    4       -7.413778   1.000000
    5       -7.299482   1.000000
    6       -7.222464   1.000000
    7       -7.105986   1.000000
    8       -7.071271   1.000000
    9       -7.022042   1.000000
   10       -6.954614   1.000000
   11       -6.678758   1.000000
   12       -6.597963   1.000000
   13       -6.569717   1.000000
   14       -6.559126   1.000000
   15       -6.509532   1.000000
   16       -6.367100   1.000000
   17       -6.327704   1.000000
   18       -6.262723   1.000000
   19       -6.219552   1.000000
   20       -5.880160   1.000000
   21       -5.615607   1.000000
   22       -5.605897   1.000000
   23       -5.377995   1.000000
   24       -4.852805   1.000000
   25       -4.805864   1.000000
   26       -4.731593   1.000000
   27       -4.589866   1.000000
   28       -4.510579   1.000000
   29       -4.507842   1.000000
   30       -4.432456   1.000000
   31       -4.389402   1.000000
   32       -4.335994   1.000000
   33       -4.073657   1.000000
   34       -4.028574   1.000000
   35       -3.993788   1.000000
   36       -3.971643   1.000000
   37       -3.885403   1.000000
   38       -3.846251   1.000000
   39       -3.782262   1.000000
   40       -3.757177   1.000000
   41       -3.734172   1.000000
   42       -3.578736   1.000000
   43       -3.546701   1.000000
   44       -3.492674   1.000000
   45       -3.439084   1.000000
   46       -3.417404   1.000000
   47       -3.226152   1.000000
   48       -3.122605   1.000000
   49       -2.877699   1.000000
   50       -2.809252   1.000000
   51       -2.636445   1.000000
   52       -2.594196   1.000000
   53       -2.357488   1.000000
   54       -2.313350   1.000000
   55       -2.178713   1.000000
   56       -2.093415   1.000000
   57       -1.946323   1.000000
   58       -1.829379   1.000000
   59       -1.794109   1.000000
   60       -1.741716   1.000000
   61       -1.715003   1.000000
   62       -1.649861   1.000000
   63       -1.590001   1.000000
   64       -1.512096   1.000000
   65       -1.465698   1.000000
   66       -1.362712   1.000009
   67       -1.312363   1.000043
   68       -1.155142   1.002216
   69       -1.054229   1.012793
   70       -1.023582   1.018946
   71       -0.935462   1.035361
   72       -0.926287   1.035392
   73       -0.863427   1.009649
   74       -0.829960   0.967577
   75       -0.808531   0.926911
   76       -0.751531   0.763577
   77       -0.696417   0.546530
   78       -0.671794   0.442564
   79       -0.633434   0.288120
   80       -0.535564   0.024116
   81       -0.436504  -0.035399
   82       -0.414696  -0.033326
   83       -0.345361  -0.018538
   84       -0.304390  -0.010732
   85       -0.094056  -0.000119
   86        0.282270  -0.000000
   87        0.356707  -0.000000
   88        0.584849  -0.000000
   89        0.917319  -0.000000
   90        1.111458  -0.000000
   91        1.374080  -0.000000
   92        1.641923  -0.000000
   93        2.240990  -0.000000
   94        2.554486  -0.000000
   95        2.774343  -0.000000
   96        3.137178  -0.000000
 
 -0.6250000E-01  0.1250000E+00  0.0000000E+00  0.2083333E-01
    1       -9.839383   1.000000
    2       -8.618784   1.000000
    3       -7.545637   1.000000
    4       -7.414334   1.000000
    5       -7.300516   1.000000
    6       -7.220215   1.000000
    7       -7.107043   1.000000
    8       -7.072007   1.000000
    9       -7.021662   1.000000
   10       -6.954455   1.000000
   11       -6.679401   1.000000
   12       -6.598545   1.000000
   13       -6.567510   1.000000
   14       -6.561754   1.000000
   15       -6.508628   1.000000
   16       -6.362321   1.000000
   17       -6.326930   1.000000
   18       -6.265606   1.000000
   19       -6.222886   1.000000
   20       -5.879241   1.000000
   21       -5.624574   1.000000
   22       -5.598270   1.000000
   23       -5.375323   1.000000
   24       -4.867324   1.000000
   25       -4.794596   1.000000
   26       -4.731647   1.000000
   27       -4.582762   1.000000
   28       -4.520479   1.000000
   29       -4.496501   1.000000
   30       -4.428564   1.000000
   31       -4.400955   1.000000
   32       -4.332363   1.000000
   33       -4.069906   1.000000
   34       -4.029898   1.000000
   35       -3.998479   1.000000
   36       -3.967617   1.000000
   37       -3.895371   1.000000
   38       -3.848270   1.000000
   39       -3.771903   1.000000
   40       -3.747410   1.000000
   41       -3.734497   1.000000
   42       -3.594448   1.000000
   43       -3.533087   1.000000
   44       -3.505313   1.000000
   45       -3.453089   1.000000
   46       -3.399790   1.000000
   47       -3.192625   1.000000
   48       -3.133985   1.000000
   49       -2.899642   1.000000
   50       -2.831104   1.000000
   51       -2.619480   1.000000
   52       -2.576188   1.000000
   53       -2.347970   1.000000
   54       -2.303591   1.000000
   55       -2.226124   1.000000
   56       -2.064574   1.000000
   57       -1.975939   1.000000
   58       -1.840009   1.000000
   59       -1.765389   1.000000
   60       -1.730673   1.000000
   61       -1.720088   1.000000
   62       -1.620665   1.000000
   63       -1.601794   1.000000
   64       -1.539657   1.000000
   65       -1.440704   1.000001
   66       -1.413679   1.000002
   67       -1.292181   1.000077
   68       -1.172379   1.001541
   69       -1.098636   1.006418
   70       -1.043263   1.014846
   71       -0.928852   1.035449
   72       -0.888981   1.026886
   73       -0.873991   1.018148
   74       -0.850274   0.996019
   75       -0.761837   0.798724
   76       -0.720364   0.645459
   77       -0.702203   0.570813
   78       -0.666100   0.418743
   79       -0.590415   0.143975
   80       -0.563445   0.075643
   81       -0.511924  -0.005337
   82       -0.425860  -0.034716
   83       -0.314642  -0.012451
   84       -0.235539  -0.003295
   85       -0.100759  -0.000143
   86        0.285084  -0.000000
   87        0.356819  -0.000000
   88        0.588050  -0.000000
   89        0.919732  -0.000000
   90        1.090501  -0.000000
   91        1.387771  -0.000000
   92        1.618948  -0.000000
   93        2.238272  -0.000000
   94        2.551275  -0.000000
   95        2.767381  -0.000000
   96        3.137076  -0.000000
 
  0.3125000E+00  0.6250000E-01  0.0000000E+00  0.2083333E-01
    1       -9.386738   1.000000
    2       -8.188531   1.000000
    3       -7.397759   1.000000
    4       -7.113697   1.000000
    5       -7.008437   1.000000
    6       -6.989101   1.000000
    7       -6.950064   1.000000
    8       -6.777267   1.000000
    9       -6.724900   1.000000
   10       -6.650077   1.000000
   11       -6.557565   1.000000
   12       -6.449284   1.000000
   13       -6.342950   1.000000
   14       -6.309263   1.000000
   15       -6.217608   1.000000
   16       -6.161798   1.000000
   17       -6.031072   1.000000
   18       -5.937211   1.000000
   19       -5.879770   1.000000
   20       -5.694104   1.000000
   21       -5.498843   1.000000
   22       -5.445925   1.000000
   23       -5.286074   1.000000
   24       -4.977717   1.000000
   25       -4.903751   1.000000
   26       -4.785464   1.000000
   27       -4.718676   1.000000
   28       -4.645331   1.000000
   29       -4.578076   1.000000
   30       -4.380589   1.000000
   31       -4.369865   1.000000
   32       -4.274257   1.000000
   33       -4.178884   1.000000
   34       -4.165373   1.000000
   35       -4.110219   1.000000
   36       -3.956676   1.000000
   37       -3.927873   1.000000
   38       -3.869321   1.000000
   39       -3.797633   1.000000
   40       -3.771463   1.000000
   41       -3.738723   1.000000
   42       -3.693156   1.000000
   43       -3.662635   1.000000
   44       -3.631551   1.000000
   45       -3.534566   1.000000
   46       -3.489404   1.000000
   47       -3.396462   1.000000
   48       -3.183345   1.000000
   49       -3.142706   1.000000
   50       -2.974495   1.000000
   51       -2.896846   1.000000
   52       -2.775794   1.000000
   53       -2.690607   1.000000
   54       -2.628376   1.000000
   55       -2.580960   1.000000
   56       -2.506091   1.000000
   57       -2.484646   1.000000
   58       -2.434366   1.000000
   59       -2.363823   1.000000
   60       -2.272509   1.000000
   61       -2.197215   1.000000
   62       -2.060903   1.000000
   63       -2.016579   1.000000
   64       -1.905753   1.000000
   65       -1.807004   1.000000
   66       -1.752908   1.000000
   67       -1.718528   1.000000
   68       -1.552197   1.000000
   69       -1.480074   1.000000
   70       -1.433873   1.000001
   71       -1.382960   1.000005
   72       -1.276030   1.000121
   73       -1.215681   1.000573
   74       -1.178406   1.001352
   75       -1.133599   1.003403
   76       -1.083132   1.008292
   77       -0.919619   1.034981
   78       -0.867052   1.012800
   79       -0.847548   0.992742
   80       -0.716703   0.630662
   81       -0.672216   0.444339
   82       -0.606373   0.192785
   83       -0.565366   0.079903
   84       -0.463945  -0.032977
   85       -0.338898  -0.017153
   86        0.024968  -0.000003
   87        0.380585  -0.000000
   88        0.666350  -0.000000
   89        1.022578  -0.000000
   90        1.427695  -0.000000
   91        1.816084  -0.000000
   92        2.002410  -0.000000
   93        2.371031  -0.000000
   94        2.483611  -0.000000
   95        3.243151  -0.000000
   96        3.609800  -0.000000
 
  0.2500000E+00  0.3125000E+00  0.0000000E+00  0.2083333E-01
    1       -9.386602   1.000000
    2       -8.188337   1.000000
    3       -7.396663   1.000000
    4       -7.114003   1.000000
    5       -7.004053   1.000000
    6       -6.993670   1.000000
    7       -6.948881   1.000000
    8       -6.775558   1.000000
    9       -6.724940   1.000000
   10       -6.649610   1.000000
   11       -6.560311   1.000000
   12       -6.448218   1.000000
   13       -6.342979   1.000000
   14       -6.309173   1.000000
   15       -6.215386   1.000000
   16       -6.163334   1.000000
   17       -6.035155   1.000000
   18       -5.935357   1.000000
   19       -5.870259   1.000000
   20       -5.703794   1.000000
   21       -5.479150   1.000000
   22       -5.461570   1.000000
   23       -5.291628   1.000000
   24       -4.966065   1.000000
   25       -4.901907   1.000000
   26       -4.793708   1.000000
   27       -4.734439   1.000000
   28       -4.635303   1.000000
   29       -4.580178   1.000000
   30       -4.379295   1.000000
   31       -4.368304   1.000000
   32       -4.270972   1.000000
   33       -4.178447   1.000000
   34       -4.150732   1.000000
   35       -4.128037   1.000000
   36       -3.971475   1.000000
   37       -3.910660   1.000000
   38       -3.873937   1.000000
   39       -3.799286   1.000000
   40       -3.764858   1.000000
   41       -3.730880   1.000000
   42       -3.699084   1.000000
   43       -3.664285   1.000000
   44       -3.638235   1.000000
   45       -3.553959   1.000000
   46       -3.489569   1.000000
   47       -3.399367   1.000000
   48       -3.161557   1.000000
   49       -3.142043   1.000000
   50       -2.968722   1.000000
   51       -2.907475   1.000000
   52       -2.766680   1.000000
   53       -2.694051   1.000000
   54       -2.638316   1.000000
   55       -2.569612   1.000000
   56       -2.509205   1.000000
   57       -2.486584   1.000000
   58       -2.427232   1.000000
   59       -2.351899   1.000000
   60       -2.298052   1.000000
   61       -2.200535   1.000000
   62       -2.087096   1.000000
   63       -2.005670   1.000000
   64       -1.856594   1.000000
   65       -1.832022   1.000000
   66       -1.750360   1.000000
   67       -1.672088   1.000000
   68       -1.563404   1.000000
   69       -1.514627   1.000000
   70       -1.431104   1.000001
   71       -1.352877   1.000013
   72       -1.281620   1.000104
   73       -1.218757   1.000532
   74       -1.148065   1.002559
   75       -1.105275   1.005724
   76       -1.048461   1.013851
   77       -0.970509   1.030802
   78       -0.859127   1.005580
   79       -0.808118   0.926015
   80       -0.780237   0.855584
   81       -0.701080   0.566110
   82       -0.640763   0.316233
   83       -0.543027   0.036048
   84       -0.464706  -0.032801
   85       -0.380197  -0.026477
   86        0.007987  -0.000005
   87        0.407885  -0.000000
   88        0.669500  -0.000000
   89        1.026714  -0.000000
   90        1.444941  -0.000000
   91        1.828731  -0.000000
   92        1.972159  -0.000000
   93        2.380922  -0.000000
   94        2.517772  -0.000000
   95        3.235826  -0.000000
   96        3.592908  -0.000000
 
 -0.6250000E-01  0.2500000E+00  0.0000000E+00  0.2083333E-01
    1       -9.386797   1.000000
    2       -8.188596   1.000000
    3       -7.397758   1.000000
    4       -7.114363   1.000000
    5       -7.009040   1.000000
    6       -6.990102   1.000000
    7       -6.948889   1.000000
    8       -6.776024   1.000000
    9       -6.725000   1.000000
   10       -6.649837   1.000000
   11       -6.560172   1.000000
   12       -6.449574   1.000000
   13       -6.342070   1.000000
   14       -6.309267   1.000000
   15       -6.210064   1.000000
   16       -6.169100   1.000000
   17       -6.028670   1.000000
   18       -5.938285   1.000000
   19       -5.883511   1.000000
   20       -5.692218   1.000000
   21       -5.496349   1.000000
   22       -5.449394   1.000000
   23       -5.284248   1.000000
   24       -4.976551   1.000000
   25       -4.904223   1.000000
   26       -4.787060   1.000000
   27       -4.721712   1.000000
   28       -4.644473   1.000000
   29       -4.575917   1.000000
   30       -4.373635   1.000000
   31       -4.370937   1.000000
   32       -4.279550   1.000000
   33       -4.190484   1.000000
   34       -4.154189   1.000000
   35       -4.110793   1.000000
   36       -3.955334   1.000000
   37       -3.926221   1.000000
   38       -3.864037   1.000000
   39       -3.799874   1.000000
   40       -3.778375   1.000000
   41       -3.728209   1.000000
   42       -3.699443   1.000000
   43       -3.658525   1.000000
   44       -3.630530   1.000000
   45       -3.531955   1.000000
   46       -3.488964   1.000000
   47       -3.391079   1.000000
   48       -3.183968   1.000000
   49       -3.150650   1.000000
   50       -2.988426   1.000000
   51       -2.886526   1.000000
   52       -2.774559   1.000000
   53       -2.669056   1.000000
   54       -2.632595   1.000000
   55       -2.562743   1.000000
   56       -2.523449   1.000000
   57       -2.480806   1.000000
   58       -2.453163   1.000000
   59       -2.362851   1.000000
   60       -2.285812   1.000000
   61       -2.206772   1.000000
   62       -2.061365   1.000000
   63       -1.982358   1.000000
   64       -1.936619   1.000000
   65       -1.788218   1.000000
   66       -1.761376   1.000000
   67       -1.719635   1.000000
   68       -1.590381   1.000000
   69       -1.473601   1.000000
   70       -1.419239   1.000001
   71       -1.380117   1.000005
   72       -1.297302   1.000067
   73       -1.235047   1.000356
   74       -1.165209   1.001796
   75       -1.140308   1.002986
   76       -1.033239   1.016874
   77       -0.916882   1.034693
   78       -0.875658   1.019304
   79       -0.835873   0.976833
   80       -0.724280   0.661106
   81       -0.652684   0.363588
   82       -0.618776   0.234675
   83       -0.569552   0.089512
   84       -0.453087  -0.034789
   85       -0.339418  -0.017263
   86        0.018252  -0.000004
   87        0.383803  -0.000000
   88        0.666468  -0.000000
   89        1.022635  -0.000000
   90        1.432323  -0.000000
   91        1.814916  -0.000000
   92        1.996769  -0.000000
   93        2.376068  -0.000000
   94        2.479417  -0.000000
   95        3.236401  -0.000000
   96        3.604326  -0.000000
 
  0.4375000E+00  0.6250000E-01  0.0000000E+00  0.2083333E-01
    1       -8.749375   1.000000
    2       -7.763724   1.000000
    3       -7.637241   1.000000
    4       -7.039505   1.000000
    5       -6.677424   1.000000
    6       -6.619600   1.000000
    7       -6.540749   1.000000
    8       -6.456427   1.000000
    9       -6.407425   1.000000
   10       -6.395928   1.000000
   11       -6.333860   1.000000
   12       -6.183767   1.000000
   13       -6.055343   1.000000
   14       -5.993086   1.000000
   15       -5.924831   1.000000
   16       -5.875891   1.000000
   17       -5.771285   1.000000
   18       -5.584568   1.000000
   19       -5.546902   1.000000
   20       -5.391368   1.000000
   21       -5.276653   1.000000
   22       -5.231719   1.000000
   23       -5.184810   1.000000
   24       -5.097809   1.000000
   25       -5.059379   1.000000
   26       -4.935208   1.000000
   27       -4.872521   1.000000
   28       -4.818490   1.000000
   29       -4.621607   1.000000
   30       -4.588335   1.000000
   31       -4.505778   1.000000
   32       -4.459021   1.000000
   33       -4.367773   1.000000
   34       -4.322981   1.000000
   35       -4.304297   1.000000
   36       -4.169684   1.000000
   37       -4.068220   1.000000
   38       -4.009583   1.000000
   39       -3.965888   1.000000
   40       -3.862543   1.000000
   41       -3.787927   1.000000
   42       -3.716065   1.000000
   43       -3.676813   1.000000
   44       -3.617038   1.000000
   45       -3.560231   1.000000
   46       -3.494661   1.000000
   47       -3.462333   1.000000
   48       -3.431684   1.000000
   49       -3.350428   1.000000
   50       -3.289688   1.000000
   51       -3.195947   1.000000
   52       -3.170743   1.000000
   53       -3.127523   1.000000
   54       -3.070642   1.000000
   55       -2.922323   1.000000
   56       -2.864791   1.000000
   57       -2.784698   1.000000
   58       -2.719394   1.000000
   59       -2.672177   1.000000
   60       -2.634764   1.000000
   61       -2.419029   1.000000
   62       -2.370093   1.000000
   63       -2.309511   1.000000
   64       -2.215905   1.000000
   65       -2.156440   1.000000
   66       -2.088605   1.000000
   67       -2.042804   1.000000
   68       -1.937754   1.000000
   69       -1.852096   1.000000
   70       -1.796811   1.000000
   71       -1.735518   1.000000
   72       -1.725447   1.000000
   73       -1.524007   1.000000
   74       -1.417905   1.000001
   75       -1.367450   1.000008
   76       -1.300124   1.000062
   77       -1.133986   1.003377
   78       -1.010661   1.021854
   79       -0.931313   1.035454
   80       -0.757622   0.784618
   81       -0.737932   0.713999
   82       -0.619211   0.236202
   83       -0.590654   0.144663
   84       -0.462119  -0.033372
   85       -0.355852  -0.020875
   86       -0.234449  -0.003226
   87        0.688485  -0.000000
   88        0.818385  -0.000000
   89        1.152694  -0.000000
   90        1.575434  -0.000000
   91        1.905642  -0.000000
   92        2.143722  -0.000000
   93        2.515580  -0.000000
   94        2.689683  -0.000000
   95        3.522960  -0.000000
   96        3.807535  -0.000000
 
  0.3750000E+00  0.4375000E+00  0.0000000E+00  0.2083333E-01
    1       -8.748932   1.000000
    2       -7.763405   1.000000
    3       -7.636268   1.000000
    4       -7.040312   1.000000
    5       -6.678901   1.000000
    6       -6.617642   1.000000
    7       -6.534767   1.000000
    8       -6.451486   1.000000
    9       -6.412938   1.000000
   10       -6.391298   1.000000
   11       -6.337650   1.000000
   12       -6.184629   1.000000
   13       -6.052682   1.000000
   14       -5.991381   1.000000
   15       -5.928124   1.000000
   16       -5.872269   1.000000
   17       -5.766282   1.000000
   18       -5.589999   1.000000
   19       -5.540244   1.000000
   20       -5.401448   1.000000