       N       E                     dE             d eps       ncg     rms          rms(c)
DAV:   1     0.980734607469E+03    0.98073E+03   -0.55733E+04  9984   0.102E+03
DAV:   2    -0.418935073209E+02   -0.10226E+04   -0.99292E+03 14472   0.249E+02
DAV:   3    -0.101255440155E+03   -0.59362E+02   -0.57590E+02 12504   0.603E+01
DAV:   4    -0.102555834951E+03   -0.13004E+01   -0.12946E+01 14400   0.102E+01
DAV:   5    -0.102585278746E+03   -0.29444E-01   -0.29431E-01 14952   0.123E+00    0.418E+01
DAV:   6    -0.983837883457E+02    0.42015E+01   -0.32706E+01 11928   0.203E+01    0.303E+01
DAV:   7    -0.133253254898E+03   -0.34869E+02   -0.38799E+02 14496   0.707E+01    0.504E+01
DAV:   8    -0.116497515359E+03    0.16756E+02   -0.15352E+02 14472   0.446E+01    0.391E+01
DAV:   9    -0.107356508750E+03    0.91410E+01   -0.14997E+02 14400   0.442E+01    0.256E+01
DAV:  10    -0.102932901458E+03    0.44236E+01   -0.13006E+02 13056   0.395E+01    0.252E+01
DAV:  11    -0.969149947183E+02    0.60179E+01   -0.14454E+01 14592   0.182E+01    0.959E+00
DAV:  12    -0.961478942934E+02    0.76710E+00   -0.48137E+00 15312   0.128E+01    0.586E+00
DAV:  13    -0.959256074076E+02    0.22229E+00   -0.14221E+00 12768   0.532E+00    0.312E+00
DAV:  14    -0.960420328916E+02   -0.11643E+00   -0.16024E+00 13488   0.366E+00    0.498E+00
DAV:  15    -0.959102072785E+02    0.13183E+00   -0.10486E+00 12768   0.293E+00    0.227E+00
DAV:  16    -0.959121921815E+02   -0.19849E-02   -0.23244E-01 12696   0.176E+00    0.173E+00
DAV:  17    -0.959019095694E+02    0.10283E-01   -0.46852E-02 12120   0.806E-01    0.130E+00
DAV:  18    -0.958909277366E+02    0.10982E-01   -0.35025E-02 13032   0.647E-01    0.629E-01
DAV:  19    -0.958898171863E+02    0.11106E-02   -0.76382E-03 12048   0.330E-01    0.539E-01
DAV:  20    -0.958888958858E+02    0.92130E-03   -0.42754E-03 13224   0.232E-01    0.463E-01
DAV:  21    -0.958882371276E+02    0.65876E-03   -0.11717E-03 12240   0.133E-01    0.360E-01
DAV:  22    -0.958876401568E+02    0.59697E-03   -0.16811E-03 12312   0.138E-01    0.188E-01
DAV:  23    -0.958874934726E+02    0.14668E-03   -0.25468E-03 12672   0.150E-01    0.959E-02
DAV:  24    -0.958875005515E+02   -0.70788E-05   -0.11055E-04 10920   0.405E-02    0.694E-02
DAV:  25    -0.958875262038E+02   -0.25652E-04   -0.11925E-04  8280   0.341E-02    0.473E-02
DAV:  26    -0.958875685007E+02   -0.42297E-04   -0.33310E-05  7488   0.226E-02    0.342E-02
DAV:  27    -0.958876240252E+02   -0.55524E-04   -0.50124E-05  7848   0.224E-02    0.115E-02
DAV:  28    -0.958876761137E+02   -0.52089E-04   -0.11297E-05  7608   0.123E-02    0.110E-02
DAV:  29    -0.958877115808E+02   -0.35467E-04   -0.95637E-06  7512   0.924E-03    0.624E-03
DAV:  30    -0.958878142528E+02   -0.10267E-03   -0.20348E-05  7728   0.123E-02    0.133E-02
DAV:  31    -0.958878464625E+02   -0.32210E-04   -0.33101E-06  7944   0.549E-03    0.790E-03
DAV:  32    -0.958878770803E+02   -0.30618E-04   -0.59502E-06  7536   0.615E-03    0.217E-03
DAV:  33    -0.958878903388E+02   -0.13259E-04   -0.75346E-07  7560   0.266E-03    0.185E-03
DAV:  34    -0.958879005431E+02   -0.10204E-04   -0.37933E-07  6936   0.167E-03    0.139E-03
DAV:  35    -0.958879084003E+02   -0.78572E-05   -0.20555E-07  7104   0.135E-03
   1 F= -.95887699E+02 E0= -.95879397E+02  d E =-.249069E-01
