 vasp.5.4.4.18Apr17-6-g9f103f2a35 (build Apr 28 2017 10:53:45) complex          
  
 executed on             LinuxIFC date 2020.02.17  09:19:50
 running on   24 total cores
 distrk:  each k-point on   24 cores,    1 groups
 distr:  one band on NCORES_PER_BAND=   1 cores,   24 groups


--------------------------------------------------------------------------------------------------------


 INCAR:
 POTCAR:    PAW_PBE Au 04Oct2007                  
 POTCAR:    PAW_PBE Pt 04Feb2005                  
 POTCAR:    PAW_PBE Ir 06Sep2000                  
 POTCAR:    PAW_PBE H 15Jun2001                   

 ----------------------------------------------------------------------------- 
|                                                                             |
|           W    W    AA    RRRRR   N    N  II  N    N   GGGG   !!!           |
|           W    W   A  A   R    R  NN   N  II  NN   N  G    G  !!!           |
|           W    W  A    A  R    R  N N  N  II  N N  N  G       !!!           |
|           W WW W  AAAAAA  RRRRR   N  N N  II  N  N N  G  GGG   !            |
|           WW  WW  A    A  R   R   N   NN  II  N   NN  G    G                |
|           W    W  A    A  R    R  N    N  II  N    N   GGGG   !!!           |
|                                                                             |
|      For optimal performance we recommend to set                            |
|        NCORE= 4 - approx SQRT( number of cores)                             |
|      NCORE specifies how many cores store one orbital (NPAR=cpu/NCORE).     |
|      This setting can  greatly improve the performance of VASP for DFT.     |
|      The default,   NCORE=1            might be grossly inefficient         |
|      on modern multi-core architectures or massively parallel machines.     |
|      Do your own testing !!!!                                               |
|      Unfortunately you need to use the default for GW and RPA calculations. |
|      (for HF NCORE is supported but not extensively tested yet)             |
|                                                                             |
 ----------------------------------------------------------------------------- 

 POTCAR:    PAW_PBE Au 04Oct2007                  
   SHA256 =  d0044ae04e2bdce24051b198fc5c053d722a5bc6fe3c3b100514a13fc5d2db88 Au
   COPYR  = (c) Copyright 04Oct2007 Georg Kresse                                
   COPYR  = This file is part of the software VASP. Any use, copying, and all ot
   COPYR  = If you do not have a valid VASP license, you may not use, copy or di
   VRHFIN =Au: s1d10                                                            
   LEXCH  = PE                                                                  
   EATOM  =   926.0867 eV,   68.0654 Ry                                         
                                                                                
   TITEL  = PAW_PBE Au 04Oct2007                                                
   LULTRA =        F    use ultrasoft PP ?                                      
   IUNSCR =        1    unscreen: 0-lin 1-nonlin 2-no                           
   RPACOR =    2.330    partial core radius                                     
   POMASS =  196.966; ZVAL   =   11.000    mass and valenz                      
   RCORE  =    2.500    outmost cutoff radius                                   
   RWIGS  =    2.840; RWIGS  =    1.503    wigner-seitz radius (au A)           
   ENMAX  =  229.943; ENMIN  =  172.457 eV                                      
   ICORE  =        3    local potential                                         
   LCOR   =        T    correct aug charges                                     
   LPAW   =        T    paw PP                                                  
   EAUG   =  356.670                                                            
   DEXC   =    0.000                                                            
   RMAX   =    2.562    core radius for proj-oper                               
   RAUG   =    1.300    factor for augmentation sphere                          
   RDEP   =    2.598    radius for radial grids                                 
   RDEPT  =    2.193    core radius for aug-charge                              
                                                                                
   Atomic configuration                                                         
   16 entries                                                                   
     n  l   j            E        occ.                                          
     1  0  0.50    -80748.5001   2.0000                                         
     2  0  0.50    -14244.7466   2.0000                                         
     2  1  1.50    -12310.9591   6.0000                                         
     3  0  0.50     -3362.1768   2.0000                                         
     3  1  1.50     -2801.5463   6.0000                                         
     3  2  2.50     -2203.8206  10.0000                                         
     4  0  0.50      -729.8168   2.0000                                         
     4  1  1.50      -546.0527   6.0000                                         
     4  2  2.50      -325.7302  10.0000                                         
     4  3  3.50       -81.1472  14.0000                                         
     5  0  0.50      -108.3201   2.0000                                         
     5  1  1.50       -59.7479   6.0000                                         
     5  2  2.50        -6.8783  10.0000                                         
     6  0  0.50        -5.7602   1.0000                                         
     6  1  1.50        -6.8029   0.0000                                         
     5  3  2.50        -1.3606   0.0000                                         
   Description                                                                  
     l       E           TYP  RCUT    TYP  RCUT                                 
     2     -6.8782861     23  2.500                                             
     2     -8.2388687     23  2.500                                             
     0     -5.7601759     23  2.500                                             
     0     -0.8493231     23  2.500                                             
     1     -2.7211652     23  2.500                                             
     1     27.2116520     23  2.500                                             
     3     -1.3605826     23  2.500                                             
  local pseudopotential read in
  partial core-charges read in
  partial kinetic energy density read in
  atomic valenz-charges read in
  non local Contribution for L=           2  read in
    real space projection operators read in
  non local Contribution for L=           2  read in
    real space projection operators read in
  non local Contribution for L=           0  read in
    real space projection operators read in
  non local Contribution for L=           0  read in
    real space projection operators read in
  non local Contribution for L=           1  read in
    real space projection operators read in
  non local Contribution for L=           1  read in
    real space projection operators read in
    PAW grid and wavefunctions read in
 
   number of l-projection  operators is LMAX  =           6
   number of lm-projection operators is LMMAX =          18
 
 POTCAR:    PAW_PBE Pt 04Feb2005                  
   SHA256 =  3ed90460adef76debcff1cfb73ee1349b515b1a3db03439735b44de3a8db7dc8 Pt
   COPYR  = (c) Copyright 04Feb2005 Georg Kresse                                
   COPYR  = This file is part of the software VASP. Any use, copying, and all ot
   COPYR  = If you do not have a valid VASP license, you may not use, copy or di
   VRHFIN =Pt: s1d9                                                             
   LEXCH  = PE                                                                  
   EATOM  =   729.1176 eV,   53.5886 Ry                                         
                                                                                
   TITEL  = PAW_PBE Pt 04Feb2005                                                
   LULTRA =        F    use ultrasoft PP ?                                      
   IUNSCR =        1    unscreen: 0-lin 1-nonlin 2-no                           
   RPACOR =    2.330    partial core radius                                     
   POMASS =  195.080; ZVAL   =   10.000    mass and valenz                      
   RCORE  =    2.600    outmost cutoff radius                                   
   RWIGS  =    2.750; RWIGS  =    1.455    wigner-seitz radius (au A)           
   ENMAX  =  230.283; ENMIN  =  172.712 eV                                      
   ICORE  =        3    local potential                                         
   LCOR   =        T    correct aug charges                                     
   LPAW   =        T    paw PP                                                  
   EAUG   =  358.966                                                            
   DEXC   =    0.000                                                            
   RMAX   =    2.658    core radius for proj-oper                               
   RAUG   =    1.300    factor for augmentation sphere                          
   RDEP   =    2.761    radius for radial grids                                 
   RDEPT  =    2.203    core radius for aug-charge                              
                                                                                
   Atomic configuration                                                         
   16 entries                                                                   
     n  l   j            E        occ.                                          
     1  0  0.50    -78401.1885   2.0000                                         
     2  0  0.50    -13770.7750   2.0000                                         
     2  1  1.50    -11931.0468   6.0000                                         
     3  0  0.50     -3234.7234   2.0000                                         
     3  1  1.50     -2699.2216   6.0000                                         
     3  2  2.50     -2119.5714  10.0000                                         
     4  0  0.50      -695.1528   2.0000                                         
     4  1  1.50      -519.6034   6.0000                                         
     4  2  2.50      -306.6786  10.0000                                         
     4  3  3.50       -70.1041  14.0000                                         
     5  0  0.50      -101.7747   2.0000                                         
     5  1  1.50       -55.9873   6.0000                                         
     5  2  2.50        -6.1423   9.0000                                         
     6  0  0.50        -5.6573   1.0000                                         
     6  1  1.50        -6.8029   0.0000                                         
     5  3  2.50        -1.3606   0.0000                                         
   Description                                                                  
     l       E           TYP  RCUT    TYP  RCUT                                 
     2     -6.1423404     23  2.500                                             
     2     -7.5029230     23  2.500                                             
     0     -5.6573207     23  2.500                                             
     0      0.7416693     23  2.500                                             
     1     -2.7211652     23  2.600                                             
     1     20.4087390     23  2.600                                             
     3     -1.3605826     23  2.500                                             
  local pseudopotential read in
  partial core-charges read in
  partial kinetic energy density read in
  atomic valenz-charges read in
  non local Contribution for L=           2  read in
    real space projection operators read in
  non local Contribution for L=           2  read in
    real space projection operators read in
  non local Contribution for L=           0  read in
    real space projection operators read in
  non local Contribution for L=           0  read in
    real space projection operators read in
  non local Contribution for L=           1  read in
    real space projection operators read in
  non local Contribution for L=           1  read in
    real space projection operators read in
    PAW grid and wavefunctions read in
 
   number of l-projection  operators is LMAX  =           6
   number of lm-projection operators is LMMAX =          18
 
 POTCAR:    PAW_PBE Ir 06Sep2000                  
   SHA256 =  7c6af8d4d487b237782eb51e6f62977b27a1da78c3c96acd1cebefd6c308f120 Ir
   COPYR  = (c) Copyright 06Sep2000 Georg Kresse                                
   COPYR  = This file is part of the software VASP. Any use, copying, and all ot
   COPYR  = If you do not have a valid VASP license, you may not use, copy or di
   VRHFIN =Ir: s1d8                                                             
   LEXCH  = PE                                                                  
   EATOM  =   560.1833 eV,   41.1723 Ry                                         
                                                                                
   TITEL  = PAW_PBE Ir 06Sep2000                                                
   LULTRA =        F    use ultrasoft PP ?                                      
   IUNSCR =        1    unscreen: 0-lin 1-nonlin 2-no                           
   RPACOR =    2.250    partial core radius                                     
   POMASS =  192.220; ZVAL   =    9.000    mass and valenz                      
   RCORE  =    2.600    outmost cutoff radius                                   
   RWIGS  =    2.690; RWIGS  =    1.423    wigner-seitz radius (au A)           
   ENMAX  =  210.864; ENMIN  =  158.148 eV                                      
   RCLOC  =    1.857    cutoff for local pot                                    
   LCOR   =        T    correct aug charges                                     
   LPAW   =        T    paw PP                                                  
   EAUG   =  318.962                                                            
   DEXC   =    0.000                                                            
   RMAX   =    2.667    core radius for proj-oper                               
   RAUG   =    1.300    factor for augmentation sphere                          
   RDEP   =    2.748    radius for radial grids                                 
   RDEPT  =    2.300    core radius for aug-charge                              
                                                                                
   Atomic configuration                                                         
   16 entries                                                                   
     n  l   j            E        occ.                                          
     1  0  0.50    -76100.0449   2.0000                                         
     2  0  0.50    -13308.1683   2.0000                                         
     2  1  1.50    -11558.0021   6.0000                                         
     3  0  0.50     -3110.7274   2.0000                                         
     3  1  1.50     -2599.2109   6.0000                                         
     3  2  2.50     -2037.1515  10.0000                                         
     4  0  0.50      -661.6001   2.0000                                         
     4  1  1.50      -493.8981   6.0000                                         
     4  2  2.50      -288.1909  10.0000                                         
     4  3  3.50       -59.5718  14.0000                                         
     5  0  0.50       -95.3879   2.0000                                         
     5  1  1.50       -52.2747   6.0000                                         
     5  2  2.50        -5.4180   8.0000                                         
     6  0  0.50        -5.5479   1.0000                                         
     6  1  1.50        -6.8029   0.0000                                         
     5  3  2.50        -1.3606   0.0000                                         
   Description                                                                  
     l       E           TYP  RCUT    TYP  RCUT                                 
     2     -5.4179967     23  2.600                                             
     2     -6.7785793     23  2.600                                             
     0     -5.5478636     23  2.600                                             
     0      2.2542272     23  2.600                                             
     1     -2.7211652     23  2.600                                             
     1     20.4087390     23  2.600                                             
  local pseudopotential read in
  partial core-charges read in
  partial kinetic energy density read in
  atomic valenz-charges read in
  non local Contribution for L=           2  read in
    real space projection operators read in
  non local Contribution for L=           2  read in
    real space projection operators read in
  non local Contribution for L=           0  read in
    real space projection operators read in
  non local Contribution for L=           0  read in
    real space projection operators read in
  non local Contribution for L=           1  read in
    real space projection operators read in
  non local Contribution for L=           1  read in
    real space projection operators read in
    PAW grid and wavefunctions read in
 
   number of l-projection  operators is LMAX  =           6
   number of lm-projection operators is LMMAX =          18
 
 POTCAR:    PAW_PBE H 15Jun2001                   
   SHA256 =  030f79b5d3ab3cf0e668861823c8fb652ff669f3e15e46930bd03bfd63a607b6 H/
   COPYR  = (c) Copyright 15Jun2001 Georg Kresse                                
   COPYR  = This file is part of the software VASP. Any use, copying, and all ot
   COPYR  = If you do not have a valid VASP license, you may not use, copy or di
   VRHFIN =H: ultrasoft test                                                    
   LEXCH  = PE                                                                  
   EATOM  =    12.4884 eV,    0.9179 Ry                                         
                                                                                
   TITEL  = PAW_PBE H 15Jun2001                                                 
   LULTRA =        F    use ultrasoft PP ?                                      
   IUNSCR =        0    unscreen: 0-lin 1-nonlin 2-no                           
   RPACOR =    0.000    partial core radius                                     
   POMASS =    1.000; ZVAL   =    1.000    mass and valenz                      
   RCORE  =    1.100    outmost cutoff radius                                   
   RWIGS  =    0.700; RWIGS  =    0.370    wigner-seitz radius (au A)           
   ENMAX  =  250.000; ENMIN  =  200.000 eV                                      
   RCLOC  =    0.701    cutoff for local pot                                    
   LCOR   =        T    correct aug charges                                     
   LPAW   =        T    paw PP                                                  
   EAUG   =  400.000                                                            
   RMAX   =    1.123    core radius for proj-oper                               
   RAUG   =    1.200    factor for augmentation sphere                          
   RDEP   =    1.112    radius for radial grids                                 
   RDEPT  =    0.926    core radius for aug-charge                              
                                                                                
   Atomic configuration                                                         
    2 entries                                                                   
     n  l   j            E        occ.                                          
     1  0  0.50        -6.4927   1.0000                                         
     2  1  0.50        -3.4015   0.0000                                         
   Description                                                                  
     l       E           TYP  RCUT    TYP  RCUT                                 
     0     -6.4927494     23  1.100                                             
     0      6.8029130     23  1.100                                             
     1     -4.0817478     23  1.100                                             
  local pseudopotential read in
  atomic valenz-charges read in
  non local Contribution for L=           0  read in
    real space projection operators read in
  non local Contribution for L=           0  read in
    real space projection operators read in
  non local Contribution for L=           1  read in
    real space projection operators read in
    PAW grid and wavefunctions read in
 
   number of l-projection  operators is LMAX  =           3
   number of lm-projection operators is LMMAX =           5
 

 ----------------------------------------------------------------------------- 
|                                                                             |
|  ADVICE TO THIS USER RUNNING 'VASP/VAMP'   (HEAR YOUR MASTER'S VOICE ...):  |
|                                                                             |
|      You have a (more or less) 'large supercell' and for larger cells       |
|      it might be more efficient to use real space projection opertators     |
|      So try LREAL= Auto  in the INCAR   file.                               |
|      Mind:          For very  accurate calculation you might also keep the  |
|      reciprocal projection scheme          (i.e. LREAL=.FALSE.)             |
|                                                                             |
 ----------------------------------------------------------------------------- 

  PAW_PBE Au 04Oct2007                  :
 energy of atom  1       EATOM= -926.0867
 kinetic energy error for atom=    0.0152 (will be added to EATOM!!)
  PAW_PBE Pt 04Feb2005                  :
 energy of atom  2       EATOM= -729.1176
 kinetic energy error for atom=    0.0144 (will be added to EATOM!!)
  PAW_PBE Ir 06Sep2000                  :
 energy of atom  3       EATOM= -560.1833
 kinetic energy error for atom=    0.0056 (will be added to EATOM!!)
  PAW_PBE H 15Jun2001                   :
 energy of atom  4       EATOM=  -12.4884
 kinetic energy error for atom=    0.0203 (will be added to EATOM!!)
 
 
 POSCAR: Au Pt Ir  H                             
  positions in cartesian coordinates
  No initial velocities read in
 exchange correlation table for  LEXCH =        8
   RHO(1)=    0.500       N(1)  =     2000
   RHO(2)=  100.500       N(2)  =     4000
 


--------------------------------------------------------------------------------------------------------


 ion  position               nearest neighbor table
   1  0.000  0.000  0.390-   3 2.78   3 2.78   4 2.78   4 2.78   2 2.78   2 2.78   5 2.84   7 2.84
                             6 2.84
   2  0.500  0.000  0.390-   4 2.78   3 2.78   4 2.78   3 2.78   1 2.78   1 2.78   8 2.81   6 2.84
                             5 2.84
   3  0.000  0.500  0.390-   1 2.78   1 2.78   2 2.78   2 2.78   4 2.78   4 2.78   8 2.81   7 2.84
                             5 2.84
   4  0.500  0.500  0.390-   2 2.78   1 2.78   2 2.78   1 2.78   3 2.78   3 2.78   8 2.81   7 2.84
                             6 2.84
   5  0.167  0.167  0.465-   7 2.78   6 2.78   8 2.78   8 2.78   7 2.78   6 2.78  12 2.80   9 2.80
                            10 2.80   1 2.84   3 2.84   2 2.84
   6  0.667  0.167  0.465-   7 2.78   5 2.78   8 2.78   8 2.78   7 2.78   5 2.78  11 2.80   9 2.80
                            10 2.80   1 2.84   2 2.84   4 2.84
   7  0.167  0.667  0.465-   5 2.78   6 2.78   8 2.78   8 2.78   6 2.78   5 2.78  11 2.80  12 2.80
                            10 2.80   1 2.84   3 2.84   4 2.84
   8  0.667  0.667  0.464-   6 2.78   7 2.78   5 2.78   5 2.78   6 2.78   7 2.78   4 2.81   3 2.81
                             2 2.81   9 2.84  12 2.84  11 2.84
   9  0.834  0.332  0.540-  11 2.77  12 2.77  10 2.78  10 2.78  12 2.79  11 2.79   5 2.80   6 2.80
                            15 2.81  16 2.81   8 2.84  13 2.91
  10  0.333  0.333  0.540-  11 2.78  11 2.78  12 2.78  12 2.78   9 2.78   9 2.78   6 2.80   7 2.80
                             5 2.80  14 2.82  15 2.82  16 2.82
  11  0.834  0.834  0.540-   9 2.77  12 2.77  10 2.78  10 2.78   9 2.79  12 2.79   6 2.80   7 2.80
                            14 2.81  15 2.81   8 2.84  13 2.91
  12  0.332  0.834  0.540-   9 2.77  11 2.77  10 2.78  10 2.78   9 2.79  11 2.79   5 2.80   7 2.80
                            16 2.81  14 2.81   8 2.84  13 2.91
  13  0.000  0.000  0.619-  17 1.56  15 2.78  14 2.78  16 2.78  16 2.78  14 2.78  15 2.78  11 2.91
                            12 2.91   9 2.91
  14  0.500  0.999  0.615-  15 2.77  16 2.77  13 2.78  13 2.78  15 2.79  16 2.79  12 2.81  11 2.81
                            10 2.82
  15  0.999  0.500  0.615-  14 2.77  16 2.77  13 2.78  13 2.78  14 2.79  16 2.79   9 2.81  11 2.81
                            10 2.82
  16  0.500  0.500  0.615-  14 2.77  15 2.77  13 2.78  13 2.78  14 2.79  15 2.79   9 2.81  12 2.81
                            10 2.82
  17  0.000  0.000  0.670-  13 1.56
 
  LATTYP: Found a hexagonal cell.
 ALAT       =     5.5578593001
 C/A-ratio  =     5.5429542221
  
  Lattice vectors:
  
 A1 = (   2.7789296501,  -4.8132473446,   0.0000000000)
 A2 = (  -5.5578593001,   0.0000000000,   0.0000000000)
 A3 = (   0.0000000000,   0.0000000000, -30.8069596737)


Analysis of symmetry for initial positions (statically):
=====================================================================
 Subroutine PRICEL returns:
 Original cell was already a primitive cell.
 

 Routine SETGRP: Setting up the symmetry group for a 
 hexagonal supercell.


 Subroutine GETGRP returns: Found  2 space group operations
 (whereof  2 operations were pure point group operations)
 out of a pool of 24 trial point group operations.


The static configuration has the point symmetry C_1h.


Analysis of symmetry for dynamics (positions and initial velocities):
=====================================================================
 Subroutine PRICEL returns:
 Original cell was already a primitive cell.
 

 Routine SETGRP: Setting up the symmetry group for a 
 hexagonal supercell.


 Subroutine GETGRP returns: Found  2 space group operations
 (whereof  2 operations were pure point group operations)
 out of a pool of 24 trial point group operations.


The dynamic configuration has the point symmetry C_1h.


Analysis of constrained symmetry for selective dynamics:
=====================================================================
 Subroutine PRICEL returns:
 Original cell was already a primitive cell.
 

 Routine SETGRP: Setting up the symmetry group for a 
 hexagonal supercell.


 Subroutine GETGRP returns: Found  2 space group operations
 (whereof  2 operations were pure point group operations)
 out of a pool of 24 trial point group operations.


The constrained configuration has the point symmetry C_1h.


 Subroutine INISYM returns: Found  2 space group operations
 (whereof  2 operations are pure point group operations),
 and found     1 'primitive' translations

 
 
 KPOINTS: KPOINTS created by Atomic Simulation Env

Automatic generation of k-mesh.
Space group operators:
 irot       det(A)        alpha          n_x          n_y          n_z        tau_x        tau_y        tau_z
    1     1.000000     0.000001     1.000000     0.000000     0.000000     0.000000     0.000000     0.000000
    2    -1.000000   180.000000     0.500000    -0.866025     0.000000     0.000000     0.000000     0.000000
 
 Subroutine IBZKPT returns following result:
 ===========================================
 
 Found     52 irreducible k-points:
 
 Following reciprocal coordinates:
            Coordinates               Weight
  0.062500  0.062500  0.000000     16.000000
  0.000000  0.062500  0.000000     32.000000
  0.187500  0.062500  0.000000     32.000000
  0.125000  0.187500  0.000000     32.000000
 -0.062500  0.125000  0.000000     32.000000
  0.312500  0.062500  0.000000     32.000000
  0.250000  0.312500  0.000000     32.000000
 -0.062500  0.250000  0.000000     32.000000
  0.437500  0.062500  0.000000     32.000000
  0.375000  0.437500  0.000000     32.000000
 -0.062500  0.375000  0.000000     32.000000
 -0.437500  0.062500  0.000000     32.000000
  0.500000 -0.437500  0.000000     32.000000
 -0.062500  0.500000  0.000000     32.000000
 -0.312500  0.062500  0.000000     32.000000
 -0.375000 -0.312500  0.000000     32.000000
 -0.062500 -0.375000  0.000000     32.000000
 -0.187500  0.062500  0.000000     32.000000
 -0.250000 -0.187500  0.000000     32.000000
 -0.062500 -0.250000  0.000000     32.000000
 -0.062500  0.062500  0.000000     16.000000
 -0.125000 -0.062500  0.000000     32.000000
  0.187500  0.187500  0.000000     16.000000
  0.000000  0.187500  0.000000     32.000000
  0.312500  0.187500  0.000000     32.000000
  0.125000  0.312500  0.000000     32.000000
 -0.187500  0.125000  0.000000     32.000000
  0.437500  0.187500  0.000000     32.000000
  0.250000  0.437500  0.000000     32.000000
 -0.187500  0.250000  0.000000     32.000000
 -0.437500  0.187500  0.000000     32.000000
  0.375000 -0.437500  0.000000     32.000000
 -0.187500  0.375000  0.000000     32.000000
 -0.312500  0.187500  0.000000     32.000000
  0.500000 -0.312500  0.000000     32.000000
 -0.187500  0.500000  0.000000     32.000000
 -0.187500  0.187500  0.000000     16.000000
 -0.375000 -0.187500  0.000000     32.000000
  0.312500  0.312500  0.000000     16.000000
  0.000000  0.312500  0.000000     32.000000
  0.437500  0.312500  0.000000     32.000000
  0.125000  0.437500  0.000000     32.000000
 -0.312500  0.125000  0.000000     32.000000
 -0.437500  0.312500  0.000000     32.000000
  0.250000 -0.437500  0.000000     32.000000
 -0.312500  0.250000  0.000000     32.000000
 -0.312500  0.312500  0.000000     16.000000
  0.375000 -0.312500  0.000000     32.000000
  0.437500  0.437500  0.000000     16.000000
  0.000000  0.437500  0.000000     32.000000
 -0.437500  0.437500  0.000000     16.000000
  0.125000 -0.437500  0.000000     32.000000
 
 Following cartesian coordinates:
            Coordinates               Weight
  0.011245  0.006492  0.000000     16.000000
  0.000000  0.012985  0.000000     32.000000
  0.033736 -0.006492  0.000000     32.000000
  0.022491  0.025970  0.000000     32.000000
 -0.011245  0.032462  0.000000     32.000000
  0.056227 -0.019477  0.000000     32.000000
  0.044981  0.038955  0.000000     32.000000
 -0.011245  0.058432  0.000000     32.000000
  0.078717 -0.032462  0.000000     32.000000
  0.067472  0.051940  0.000000     32.000000
 -0.011245  0.084402  0.000000     32.000000
 -0.078717  0.058432  0.000000     32.000000
  0.089963 -0.142835  0.000000     32.000000
 -0.011245  0.110372  0.000000     32.000000
 -0.056227  0.045447  0.000000     32.000000
 -0.067472 -0.025970  0.000000     32.000000
 -0.011245 -0.071417  0.000000     32.000000
 -0.033736  0.032462  0.000000     32.000000
 -0.044981 -0.012985  0.000000     32.000000
 -0.011245 -0.045447  0.000000     32.000000
 -0.011245  0.019477  0.000000     16.000000
 -0.022491  0.000000  0.000000     32.000000
  0.033736  0.019477  0.000000     16.000000
  0.000000  0.038955  0.000000     32.000000
  0.056227  0.006492  0.000000     32.000000
  0.022491  0.051940  0.000000     32.000000
 -0.033736  0.045447  0.000000     32.000000
  0.078717 -0.006492  0.000000     32.000000
  0.044981  0.064925  0.000000     32.000000
 -0.033736  0.071417  0.000000     32.000000
 -0.078717  0.084402  0.000000     32.000000
  0.067472 -0.129850  0.000000     32.000000
 -0.033736  0.097387  0.000000     32.000000
 -0.056227  0.071417  0.000000     32.000000
  0.089963 -0.116865  0.000000     32.000000
 -0.033736  0.123357  0.000000     32.000000
 -0.033736  0.058432  0.000000     16.000000
 -0.067472  0.000000  0.000000     32.000000
  0.056227  0.032462  0.000000     16.000000
  0.000000  0.064925  0.000000     32.000000
  0.078717  0.019477  0.000000     32.000000
  0.022491  0.077910  0.000000     32.000000
 -0.056227  0.058432  0.000000     32.000000
 -0.078717  0.110372  0.000000     32.000000
  0.044981 -0.116865  0.000000     32.000000
 -0.056227  0.084402  0.000000     32.000000
 -0.056227  0.097387  0.000000     16.000000
  0.067472 -0.103880  0.000000     32.000000
  0.078717  0.045447  0.000000     16.000000
  0.000000  0.090895  0.000000     32.000000
 -0.078717  0.136342  0.000000     16.000000
  0.022491 -0.103880  0.000000     32.000000
 


--------------------------------------------------------------------------------------------------------




 Dimension of arrays:
   k-points           NKPTS =     52   k-points in BZ     NKDIM =     52   number of bands    NBANDS=     96
   number of dos      NEDOS =    301   number of ions     NIONS =     17
   non local maximal  LDIM  =      6   non local SUM 2l+1 LMDIM =     18
   total plane-waves  NPLWV = 112896
   max r-space proj   IRMAX =      1   max aug-charges    IRDMAX=  10104
   dimension x,y,z NGX =    28 NGY =   28 NGZ =  144
   dimension x,y,z NGXF=    56 NGYF=   56 NGZF=  288
   support grid    NGXF=    56 NGYF=   56 NGZF=  288
   ions per type =               1  14   1   1
   NGX,Y,Z   is equivalent  to a cutoff of   8.38,  8.38,  7.77 a.u.
   NGXF,Y,Z  is equivalent  to a cutoff of  16.75, 16.75, 15.54 a.u.

 SYSTEM =  unknown system                          
 POSCAR =  Au Pt Ir  H                             

 Startparameter for this run:
   NWRITE =      2    write-flag & timer
   PREC   = normal    normal or accurate (medium, high low for compatibility)
   ISTART =      0    job   : 0-new  1-cont  2-samecut
   ICHARG =      2    charge: 1-file 2-atom 10-const
   ISPIN  =      1    spin polarized calculation?
   LNONCOLLINEAR =      F non collinear calculations
   LSORBIT =      F    spin-orbit coupling
   INIWAV =      1    electr: 0-lowe 1-rand  2-diag
   LASPH  =      F    aspherical Exc in radial PAW
   METAGGA=      F    non-selfconsistent MetaGGA calc.

 Electronic Relaxation 1
   ENCUT  =  350.0 eV  25.72 Ry    5.07 a.u.   8.48  8.48 46.99*2*pi/ulx,y,z
   ENINI  =  350.0     initial cutoff
   ENAUG  =  400.0 eV  augmentation charge cutoff
   NELM   =     60;   NELMIN=  2; NELMDL= -5     # of ELM steps 
   EDIFF  = 0.1E-04   stopping-criterion for ELM
   LREAL  =      F    real-space projection
   NLSPLINE    = F    spline interpolate recip. space projectors
   LCOMPAT=      F    compatible to vasp.4.4
   GGA_COMPAT  = T    GGA compatible to vasp.4.4-vasp.4.6
   LMAXPAW     = -100 max onsite density
   LMAXMIX     =    2 max onsite mixed and CHGCAR
   VOSKOWN=      0    Vosko Wilk Nusair interpolation
   ROPT   =    0.00000   0.00000   0.00000   0.00000
 Ionic relaxation
   EDIFFG = -.5E-01   stopping-criterion for IOM
   NSW    =      0    number of steps for IOM
   NBLOCK =      1;   KBLOCK =      1    inner block; outer block 
   IBRION =     -1    ionic relax: 0-MD 1-quasi-New 2-CG
   NFREE  =      1    steps in history (QN), initial steepest desc. (CG)
   ISIF   =      2    stress and relaxation
   IWAVPR =     10    prediction:  0-non 1-charg 2-wave 3-comb
   ISYM   =      2    0-nonsym 1-usesym 2-fastsym
   LCORR  =      T    Harris-Foulkes like correction to forces

   POTIM  = 0.5000    time-step for ionic-motion
   TEIN   =    0.0    initial temperature
   TEBEG  =    0.0;   TEEND  =   0.0 temperature during run
   SMASS  =  -3.00    Nose mass-parameter (am)
   estimated Nose-frequenzy (Omega)   =  0.10E-29 period in steps =****** mass=  -0.706E-27a.u.
   SCALEE = 1.0000    scale energy and forces
   NPACO  =    256;   APACO  = 16.0  distance and # of slots for P.C.
   PSTRESS=    0.0 pullay stress

  Mass of Ions in am
   POMASS = 196.97195.08192.22  1.00
  Ionic Valenz
   ZVAL   =  11.00 10.00  9.00  1.00
  Atomic Wigner-Seitz radii
   RWIGS  =  -1.00 -1.00 -1.00 -1.00
  virtual crystal weights 
   VCA    =   1.00  1.00  1.00  1.00
   NELECT =     161.0000    total number of electrons
   NUPDOWN=      -1.0000    fix difference up-down

 DOS related values:
   EMIN   =  10.00;   EMAX   =-10.00  energy-range for DOS
   EFERMI =   0.00
   ISMEAR =     1;   SIGMA  =   0.20  broadening in eV -4-tet -1-fermi 0-gaus

 Electronic relaxation 2 (details)
   IALGO  =     38    algorithm
   LDIAG  =      T    sub-space diagonalisation (order eigenvalues)
   LSUBROT=      F    optimize rotation matrix (better conditioning)
   TURBO    =      0    0=normal 1=particle mesh
   IRESTART =      0    0=no restart 2=restart with 2 vectors
   NREBOOT  =      0    no. of reboots
   NMIN     =      0    reboot dimension
   EREF     =   0.00    reference energy to select bands
   IMIX   =      4    mixing-type and parameters
     AMIX     =   0.40;   BMIX     =  1.00
     AMIX_MAG =   1.60;   BMIX_MAG =  1.00
     AMIN     =   0.10
     WC   =   100.;   INIMIX=   1;  MIXPRE=   1;  MAXMIX= -45

 Intra band minimization:
   WEIMIN = 0.0000     energy-eigenvalue tresh-hold
   EBREAK =  0.26E-07  absolut break condition
   DEPER  =   0.30     relativ break condition  

   TIME   =   0.40     timestep for ELM

  volume/ion in A,a.u.               =      48.48       327.15
  Fermi-wavevector in a.u.,A,eV,Ry     =   0.949916  1.795081 12.277090  0.902341
  Thomas-Fermi vector in A             =   2.078244
 
 Write flags
   LWAVE        =      F    write WAVECAR
   LDOWNSAMPLE  =      F    k-point downsampling of WAVECAR
   LCHARG       =      F    write CHGCAR
   LVTOT        =      F    write LOCPOT, total local potential
   LVHAR        =      F    write LOCPOT, Hartree potential only
   LELF         =      F    write electronic localiz. function (ELF)
   LORBIT       =      0    0 simple, 1 ext, 2 COOP (PROOUT), +10 PAW based schemes


 Dipole corrections
   LMONO  =      F    monopole corrections only (constant potential shift)
   LDIPOL =      F    correct potential (dipole corrections)
   IDIPOL =      3    1-x, 2-y, 3-z, 4-all directions 
   EPSILON=  1.0000000 bulk dielectric constant

 Exchange correlation treatment:
   GGA     =    PE    GGA type
   LEXCH   =     8    internal setting for exchange type
   VOSKOWN=      0    Vosko Wilk Nusair interpolation
   LHFCALC =     F    Hartree Fock is set to
   LHFONE  =     F    Hartree Fock one center treatment
   AEXX    =    0.0000 exact exchange contribution

 Linear response parameters
   LEPSILON=     F    determine dielectric tensor
   LRPA    =     F    only Hartree local field effects (RPA)
   LNABLA  =     F    use nabla operator in PAW spheres
   LVEL    =     F    velocity operator in full k-point grid
   LINTERFAST=   F  fast interpolation
   KINTER  =     0    interpolate to denser k-point grid
   CSHIFT  =0.1000    complex shift for real part using Kramers Kronig
   OMEGAMAX=  -1.0    maximum frequency
   DEG_THRESHOLD= 0.2000000E-02 threshold for treating states as degnerate
   RTIME   =   -0.100 relaxation time in fs
  (WPLASMAI=    0.000 imaginary part of plasma frequency in eV, 0.658/RTIME)
   DFIELD  = 0.0000000 0.0000000 0.0000000 field for delta impulse in time
 
 Orbital magnetization related:
   ORBITALMAG=     F  switch on orbital magnetization
   LCHIMAG   =     F  perturbation theory with respect to B field
   DQ        =  0.001000  dq finite difference perturbation B field
   LLRAUG    =     F  two centre corrections for induced B field



--------------------------------------------------------------------------------------------------------


 Static calculation
 charge density and potential will be updated during run
 non-spin polarized calculation
 Variant of blocked Davidson
 Davidson routine will perform the subspace rotation
 perform sub-space diagonalisation
    after iterative eigenvector-optimisation
 modified Broyden-mixing scheme, WC =      100.0
 initial mixing is a Kerker type mixing with AMIX =  0.4000 and BMIX =      1.0000
 Hartree-type preconditioning will be used
 using additional bands           15
 reciprocal scheme for non local part
 use partial core corrections
 calculate Harris-corrections to forces 
   (improved forces if not selfconsistent)
 use gradient corrections 
 use of overlap-Matrix (Vanderbilt PP)
 Methfessel and Paxton  Order N= 1 SIGMA  =   0.20


--------------------------------------------------------------------------------------------------------


  energy-cutoff  :      350.00
  volume of cell :      824.13
      direct lattice vectors                 reciprocal lattice vectors
     5.557859300  0.000000000  0.000000000     0.179925390 -0.103879972  0.000000000
     2.778929650  4.813247345  0.000000000     0.000000000  0.207759944  0.000000000
     0.000000000  0.000000000 30.806959674     0.000000000  0.000000000  0.032460198

  length of vectors
     5.557859300  5.557859300 30.806959674     0.207759944  0.207759944  0.032460198


 
 k-points in units of 2pi/SCALE and weight: KPOINTS created by Atomic Simulation Env
   0.01124534  0.00649250  0.00000000       0.010
   0.00000000  0.01298500  0.00000000       0.021
   0.03373601 -0.00649250  0.00000000       0.021
   0.02249067  0.02596999  0.00000000       0.021
  -0.01124534  0.03246249  0.00000000       0.021
   0.05622668 -0.01947749  0.00000000       0.021
   0.04498135  0.03895499  0.00000000       0.021
  -0.01124534  0.05843248  0.00000000       0.021
   0.07871736 -0.03246249  0.00000000       0.021
   0.06747202  0.05193999  0.00000000       0.021
  -0.01124534  0.08440248  0.00000000       0.021
  -0.07871736  0.05843248  0.00000000       0.021
   0.08996269 -0.14283496  0.00000000       0.021
  -0.01124534  0.11037247  0.00000000       0.021
  -0.05622668  0.04544749  0.00000000       0.021
  -0.06747202 -0.02596999  0.00000000       0.021
  -0.01124534 -0.07141748  0.00000000       0.021
  -0.03373601  0.03246249  0.00000000       0.021
  -0.04498135 -0.01298500  0.00000000       0.021
  -0.01124534 -0.04544749  0.00000000       0.021
  -0.01124534  0.01947749  0.00000000       0.010
  -0.02249067  0.00000000  0.00000000       0.021
   0.03373601  0.01947749  0.00000000       0.010
   0.00000000  0.03895499  0.00000000       0.021
   0.05622668  0.00649250  0.00000000       0.021
   0.02249067  0.05193999  0.00000000       0.021
  -0.03373601  0.04544749  0.00000000       0.021
   0.07871736 -0.00649250  0.00000000       0.021
   0.04498135  0.06492498  0.00000000       0.021
  -0.03373601  0.07141748  0.00000000       0.021
  -0.07871736  0.08440248  0.00000000       0.021
   0.06747202 -0.12984997  0.00000000       0.021
  -0.03373601  0.09738747  0.00000000       0.021
  -0.05622668  0.07141748  0.00000000       0.021
   0.08996269 -0.11686497  0.00000000       0.021
  -0.03373601  0.12335747  0.00000000       0.021
  -0.03373601  0.05843248  0.00000000       0.010
  -0.06747202  0.00000000  0.00000000       0.021
   0.05622668  0.03246249  0.00000000       0.010
   0.00000000  0.06492498  0.00000000       0.021
   0.07871736  0.01947749  0.00000000       0.021
   0.02249067  0.07790998  0.00000000       0.021
  -0.05622668  0.05843248  0.00000000       0.021
  -0.07871736  0.11037247  0.00000000       0.021
   0.04498135 -0.11686497  0.00000000       0.021
  -0.05622668  0.08440248  0.00000000       0.021
  -0.05622668  0.09738747  0.00000000       0.010
   0.06747202 -0.10387997  0.00000000       0.021
   0.07871736  0.04544749  0.00000000       0.010
   0.00000000  0.09089498  0.00000000       0.021
  -0.07871736  0.13634246  0.00000000       0.010
   0.02249067 -0.10387997  0.00000000       0.021
 
 k-points in reciprocal lattice and weights: KPOINTS created by Atomic Simulation Env
   0.06250000  0.06250000  0.00000000       0.010
   0.00000000  0.06250000  0.00000000       0.021
   0.18750000  0.06250000  0.00000000       0.021
   0.12500000  0.18750000  0.00000000       0.021
  -0.06250000  0.12500000  0.00000000       0.021
   0.31250000  0.06250000  0.00000000       0.021
   0.25000000  0.31250000  0.00000000       0.021
  -0.06250000  0.25000000  0.00000000       0.021
   0.43750000  0.06250000  0.00000000       0.021
   0.37500000  0.43750000  0.00000000       0.021
  -0.06250000  0.37500000  0.00000000       0.021
  -0.43750000  0.06250000  0.00000000       0.021
   0.50000000 -0.43750000  0.00000000       0.021
  -0.06250000  0.50000000  0.00000000       0.021
  -0.31250000  0.06250000  0.00000000       0.021
  -0.37500000 -0.31250000  0.00000000       0.021
  -0.06250000 -0.37500000  0.00000000       0.021
  -0.18750000  0.06250000  0.00000000       0.021
  -0.25000000 -0.18750000  0.00000000       0.021
  -0.06250000 -0.25000000  0.00000000       0.021
  -0.06250000  0.06250000  0.00000000       0.010
  -0.12500000 -0.06250000  0.00000000       0.021
   0.18750000  0.18750000  0.00000000       0.010
   0.00000000  0.18750000  0.00000000       0.021
   0.31250000  0.18750000  0.00000000       0.021
   0.12500000  0.31250000  0.00000000       0.021
  -0.18750000  0.12500000  0.00000000       0.021
   0.43750000  0.18750000  0.00000000       0.021
   0.25000000  0.43750000  0.00000000       0.021
  -0.18750000  0.25000000  0.00000000       0.021
  -0.43750000  0.18750000  0.00000000       0.021
   0.37500000 -0.43750000  0.00000000       0.021
  -0.18750000  0.37500000  0.00000000       0.021
  -0.31250000  0.18750000  0.00000000       0.021
   0.50000000 -0.31250000  0.00000000       0.021
  -0.18750000  0.50000000  0.00000000       0.021
  -0.18750000  0.18750000  0.00000000       0.010
  -0.37500000 -0.18750000  0.00000000       0.021
   0.31250000  0.31250000  0.00000000       0.010
   0.00000000  0.31250000  0.00000000       0.021
   0.43750000  0.31250000  0.00000000       0.021
   0.12500000  0.43750000  0.00000000       0.021
  -0.31250000  0.12500000  0.00000000       0.021
  -0.43750000  0.31250000  0.00000000       0.021
   0.25000000 -0.43750000  0.00000000       0.021
  -0.31250000  0.25000000  0.00000000       0.021
  -0.31250000  0.31250000  0.00000000       0.010
   0.37500000 -0.31250000  0.00000000       0.021
   0.43750000  0.43750000  0.00000000       0.010
   0.00000000  0.43750000  0.00000000       0.021
  -0.43750000  0.43750000  0.00000000       0.010
   0.12500000 -0.43750000  0.00000000       0.021
 
 position of ions in fractional coordinates (direct lattice) 
   0.00000000  0.00000000  0.38952237
   0.50000000  0.00000000  0.38952237
   0.00000000  0.50000000  0.38952237
   0.50000000  0.50000000  0.38952237
   0.16652883  0.16652883  0.46542487
   0.66694234  0.16652883  0.46542487
   0.16652883  0.66694234  0.46542487
   0.66666667  0.66666667  0.46426737
   0.83396869  0.33206261  0.54005199
   0.33333333  0.33333333  0.53994492
   0.83396869  0.83396869  0.54005199
   0.33206261  0.83396869  0.54005199
   0.00000000  0.00000000  0.61904352
   0.50048728  0.99902544  0.61498914
   0.99902544  0.50048728  0.61498914
   0.50048728  0.50048728  0.61498914
   0.00000000  0.00000000  0.66953436
 
 position of ions in cartesian coordinates  (Angst):
   0.00000000  0.00000000 12.00000000
   2.77892965  0.00000000 12.00000000
   1.38946483  2.40662367 12.00000000
   4.16839448  2.40662367 12.00000000
   1.38831573  0.80154446 14.33832516
   4.16954357  0.80154446 14.33832516
   2.77892965  3.21015843 14.33832516
   5.55785930  3.20883156 14.30266626
   5.55785930  1.59829948 16.63736001
   2.77892965  1.60441578 16.63406129
   6.95262100  4.01409760 16.63736001
   4.16309760  4.01409760 16.63736001
   0.00000000  0.00000000 19.07084875
   5.55785930  4.80855657 18.94594552
   6.94326179  2.40896906 18.94594552
   4.17245681  2.40896906 18.94594552
   0.00000000  0.00000000 20.62631794
 


--------------------------------------------------------------------------------------------------------


 k-point  1 :   0.0625 0.0625 0.0000  plane waves:   12325
 k-point  2 :   0.0000 0.0625 0.0000  plane waves:   12325
 k-point  3 :   0.1875 0.0625 0.0000  plane waves:   12294
 k-point  4 :   0.1250 0.1875 0.0000  plane waves:   12294
 k-point  5 :  -0.0625 0.1250 0.0000  plane waves:   12294
 k-point  6 :   0.3125 0.0625 0.0000  plane waves:   12263
 k-point  7 :   0.2500 0.3125 0.0000  plane waves:   12263
 k-point  8 :  -0.0625 0.2500 0.0000  plane waves:   12263
 k-point  9 :   0.4375 0.0625 0.0000  plane waves:   12221
 k-point 10 :   0.3750 0.4375 0.0000  plane waves:   12221
 k-point 11 :  -0.0625 0.3750 0.0000  plane waves:   12221
 k-point 12 :  -0.4375 0.0625 0.0000  plane waves:   12211
 k-point 13 :   0.5000-0.4375 0.0000  plane waves:   12211
 k-point 14 :  -0.0625 0.5000 0.0000  plane waves:   12211
 k-point 15 :  -0.3125 0.0625 0.0000  plane waves:   12242
 k-point 16 :  -0.3750-0.3125 0.0000  plane waves:   12242
 k-point 17 :  -0.0625-0.3750 0.0000  plane waves:   12242
 k-point 18 :  -0.1875 0.0625 0.0000  plane waves:   12280
 k-point 19 :  -0.2500-0.1875 0.0000  plane waves:   12280
 k-point 20 :  -0.0625-0.2500 0.0000  plane waves:   12280
 k-point 21 :  -0.0625 0.0625 0.0000  plane waves:   12329
 k-point 22 :  -0.1250-0.0625 0.0000  plane waves:   12329
 k-point 23 :   0.1875 0.1875 0.0000  plane waves:   12277
 k-point 24 :   0.0000 0.1875 0.0000  plane waves:   12277
 k-point 25 :   0.3125 0.1875 0.0000  plane waves:   12288
 k-point 26 :   0.1250 0.3125 0.0000  plane waves:   12288
 k-point 27 :  -0.1875 0.1250 0.0000  plane waves:   12288
 k-point 28 :   0.4375 0.1875 0.0000  plane waves:   12234
 k-point 29 :   0.2500 0.4375 0.0000  plane waves:   12234
 k-point 30 :  -0.1875 0.2500 0.0000  plane waves:   12234
 k-point 31 :  -0.4375 0.1875 0.0000  plane waves:   12216
 k-point 32 :   0.3750-0.4375 0.0000  plane waves:   12216
 k-point 33 :  -0.1875 0.3750 0.0000  plane waves:   12216
 k-point 34 :  -0.3125 0.1875 0.0000  plane waves:   12215
 k-point 35 :   0.5000-0.3125 0.0000  plane waves:   12215
 k-point 36 :  -0.1875 0.5000 0.0000  plane waves:   12215
 k-point 37 :  -0.1875 0.1875 0.0000  plane waves:   12289
 k-point 38 :  -0.3750-0.1875 0.0000  plane waves:   12289
 k-point 39 :   0.3125 0.3125 0.0000  plane waves:   12275
 k-point 40 :   0.0000 0.3125 0.0000  plane waves:   12275
 k-point 41 :   0.4375 0.3125 0.0000  plane waves:   12239
 k-point 42 :   0.1250 0.4375 0.0000  plane waves:   12239
 k-point 43 :  -0.3125 0.1250 0.0000  plane waves:   12239
 k-point 44 :  -0.4375 0.3125 0.0000  plane waves:   12235
 k-point 45 :   0.2500-0.4375 0.0000  plane waves:   12235
 k-point 46 :  -0.3125 0.2500 0.0000  plane waves:   12235
 k-point 47 :  -0.3125 0.3125 0.0000  plane waves:   12232
 k-point 48 :   0.3750-0.3125 0.0000  plane waves:   12232
 k-point 49 :   0.4375 0.4375 0.0000  plane waves:   12200
 k-point 50 :   0.0000 0.4375 0.0000  plane waves:   12200
 k-point 51 :  -0.4375 0.4375 0.0000  plane waves:   12214
 k-point 52 :   0.1250-0.4375 0.0000  plane waves:   12214

 maximum and minimum number of plane-waves per node :     12329    12200

 maximum number of plane-waves:     12329
 maximum index in each direction: 
   IXMAX=    8   IYMAX=    8   IZMAX=   46
   IXMIN=   -8   IYMIN=   -8   IZMIN=  -46


 serial   3D FFT for wavefunctions
 parallel 3D FFT for charge:
    minimum data exchange during FFTs selected (reduces bandwidth)


 total amount of memory used by VASP MPI-rank0   455244. kBytes
=======================================================================

   base      :      30000. kBytes
   nonl-proj :     372843. kBytes
   fftplans  :       2015. kBytes
   grid      :       8030. kBytes
   one-center:        264. kBytes
   wavefun   :      42092. kBytes
 
     INWAV:  cpu time    0.0000: real time    0.0000
 Broyden mixing: mesh for mixing (old mesh)
   NGX = 17   NGY = 17   NGZ = 93
  (NGX  = 56   NGY  = 56   NGZ  =288)
  gives a total of  26877 points

 initial charge density was supplied:
 charge density of overlapping atoms calculated
 number of electron     161.0000000 magnetization 
 keeping initial charge density in first step


--------------------------------------------------------------------------------------------------------


 Maximum index for augmentation-charges          728 (set IRDMAX)


--------------------------------------------------------------------------------------------------------


 First call to EWALD:  gamma=   0.189
 Maximum number of real-space cells 5x 5x 1
 Maximum number of reciprocal cells 2x 2x 8

    FEWALD:  cpu time    0.0012: real time    0.0012


--------------------------------------- Iteration      1(   1)  ---------------------------------------


    POTLOK:  cpu time    0.0229: real time    0.0291
    SETDIJ:  cpu time    0.0025: real time    0.0025
     EDDAV:  cpu time   11.6042: real time   11.6128
       DOS:  cpu time    0.0020: real time    0.0020
    --------------------------------------------
      LOOP:  cpu time   11.6316: real time   11.6464

 eigenvalue-minimisations  :  9984
 total energy-change (2. order) : 0.9807346E+03  (-0.5573301E+04)
 number of electron     161.0000000 magnetization 
 augmentation part      161.0000000 magnetization 

 Free energy of the ion-electron system (eV)
  ---------------------------------------------------
  alpha Z        PSCENC =       305.89839443
  Ewald energy   TEWEN  =     98561.50198767
  -Hartree energ DENC   =   -110648.80879051
  -exchange      EXHF   =         0.00000000
  -V(xc)+E(xc)   XCENC  =        48.78669774
  PAW double counting   =     11173.35063782   -10713.98924482
  entropy T*S    EENTRO =        -0.00789121
  eigenvalues    EBANDS =       547.84047179
  atomic energy  EATOM  =     11706.16234457
  Solvation  Ediel_sol  =         0.00000000
  ---------------------------------------------------
  free energy    TOTEN  =       980.73460747 eV

  energy without entropy =      980.74249868  energy(sigma->0) =      980.73723787


--------------------------------------------------------------------------------------------------------




--------------------------------------- Iteration      1(   2)  ---------------------------------------


     EDDAV:  cpu time   15.6488: real time   15.6555
       DOS:  cpu time    0.0014: real time    0.0014
    --------------------------------------------
      LOOP:  cpu time   15.6502: real time   15.6570

 eigenvalue-minimisations  : 14472
 total energy-change (2. order) :-0.1022628E+04  (-0.9929187E+03)
 number of electron     161.0000000 magnetization 
 augmentation part      161.0000000 magnetization 

 Free energy of the ion-electron system (eV)
  ---------------------------------------------------
  alpha Z        PSCENC =       305.89839443
  Ewald energy   TEWEN  =     98561.50198767
  -Hartree energ DENC   =   -110648.80879051
  -exchange      EXHF   =         0.00000000
  -V(xc)+E(xc)   XCENC  =        48.78669774
  PAW double counting   =     11173.35063782   -10713.98924482
  entropy T*S    EENTRO =        -0.00739187
  eigenvalues    EBANDS =      -474.78814235
  atomic energy  EATOM  =     11706.16234457
  Solvation  Ediel_sol  =         0.00000000
  ---------------------------------------------------
  free energy    TOTEN  =       -41.89350732 eV

  energy without entropy =      -41.88611545  energy(sigma->0) =      -41.89104336


--------------------------------------------------------------------------------------------------------




--------------------------------------- Iteration      1(   3)  ---------------------------------------


     EDDAV:  cpu time   13.8805: real time   13.8950
       DOS:  cpu time    0.0015: real time    0.0015
    --------------------------------------------
      LOOP:  cpu time   13.8820: real time   13.8964

 eigenvalue-minimisations  : 12504
 total energy-change (2. order) :-0.5936193E+02  (-0.5759029E+02)
 number of electron     161.0000000 magnetization 
 augmentation part      161.0000000 magnetization 

 Free energy of the ion-electron system (eV)
  ---------------------------------------------------
  alpha Z        PSCENC =       305.89839443
  Ewald energy   TEWEN  =     98561.50198767
  -Hartree energ DENC   =   -110648.80879051
  -exchange      EXHF   =         0.00000000
  -V(xc)+E(xc)   XCENC  =        48.78669774
  PAW double counting   =     11173.35063782   -10713.98924482
  entropy T*S    EENTRO =        -0.01525864
  eigenvalues    EBANDS =      -534.14220842
  atomic energy  EATOM  =     11706.16234457
  Solvation  Ediel_sol  =         0.00000000
  ---------------------------------------------------
  free energy    TOTEN  =      -101.25544016 eV

  energy without entropy =     -101.24018152  energy(sigma->0) =     -101.25035394


--------------------------------------------------------------------------------------------------------




--------------------------------------- Iteration      1(   4)  ---------------------------------------


     EDDAV:  cpu time   15.6658: real time   15.6666
       DOS:  cpu time    0.0016: real time    0.0016
    --------------------------------------------
      LOOP:  cpu time   15.6673: real time   15.6682

 eigenvalue-minimisations  : 14400
 total energy-change (2. order) :-0.1300395E+01  (-0.1294599E+01)
 number of electron     161.0000000 magnetization 
 augmentation part      161.0000000 magnetization 

 Free energy of the ion-electron system (eV)
  ---------------------------------------------------
  alpha Z        PSCENC =       305.89839443
  Ewald energy   TEWEN  =     98561.50198767
  -Hartree energ DENC   =   -110648.80879051
  -exchange      EXHF   =         0.00000000
  -V(xc)+E(xc)   XCENC  =        48.78669774
  PAW double counting   =     11173.35063782   -10713.98924482
  entropy T*S    EENTRO =        -0.01540448
  eigenvalues    EBANDS =      -535.44245737
  atomic energy  EATOM  =     11706.16234457
  Solvation  Ediel_sol  =         0.00000000
  ---------------------------------------------------
  free energy    TOTEN  =      -102.55583495 eV

  energy without entropy =     -102.54043047  energy(sigma->0) =     -102.55070013


--------------------------------------------------------------------------------------------------------




--------------------------------------- Iteration      1(   5)  ---------------------------------------


     EDDAV:  cpu time   16.2345: real time   16.2357
       DOS:  cpu time    0.0015: real time    0.0015
    CHARGE:  cpu time    0.3460: real time    0.3460
    MIXING:  cpu time    0.0011: real time    0.0011
    --------------------------------------------
      LOOP:  cpu time   16.5831: real time   16.5844

 eigenvalue-minimisations  : 14952
 total energy-change (2. order) :-0.2944380E-01  (-0.2943140E-01)
 number of electron     161.0000053 magnetization 
 augmentation part       46.8906315 magnetization 

 Broyden mixing:
  rms(total) = 0.41845E+01    rms(broyden)= 0.41843E+01
  rms(prec ) = 0.42160E+01
  weight for this iteration     100.00

 Free energy of the ion-electron system (eV)
  ---------------------------------------------------
  alpha Z        PSCENC =       305.89839443
  Ewald energy   TEWEN  =     98561.50198767
  -Hartree energ DENC   =   -110648.80879051
  -exchange      EXHF   =         0.00000000
  -V(xc)+E(xc)   XCENC  =        48.78669774
  PAW double counting   =     11173.35063782   -10713.98924482
  entropy T*S    EENTRO =        -0.01538851
  eigenvalues    EBANDS =      -535.47191713
  atomic energy  EATOM  =     11706.16234457
  Solvation  Ediel_sol  =         0.00000000
  ---------------------------------------------------
  free energy    TOTEN  =      -102.58527875 eV

  energy without entropy =     -102.56989023  energy(sigma->0) =     -102.58014924


--------------------------------------------------------------------------------------------------------




--------------------------------------- Iteration      1(   6)  ---------------------------------------


    POTLOK:  cpu time    0.0189: real time    0.0204
    SETDIJ:  cpu time    0.0023: real time    0.0023
     EDDAV:  cpu time   13.5045: real time   13.5099
       DOS:  cpu time    0.0015: real time    0.0015
    CHARGE:  cpu time    0.3449: real time    0.3449
    MIXING:  cpu time    0.0009: real time    0.0009
    --------------------------------------------
      LOOP:  cpu time   13.8731: real time   13.8800

 eigenvalue-minimisations  : 11928
 total energy-change (2. order) : 0.4201490E+01  (-0.3270648E+01)
 number of electron     161.0000043 magnetization 
 augmentation part       49.5516445 magnetization 

 Broyden mixing:
  rms(total) = 0.30321E+01    rms(broyden)= 0.30321E+01
  rms(prec ) = 0.31736E+01
  weight for this iteration     100.00

 eigenvalues of (default mixing * dielectric matrix)
  average eigenvalue GAMMA=   1.2380
  1.2380

 Free energy of the ion-electron system (eV)
  ---------------------------------------------------
  alpha Z        PSCENC =       305.89839443
  Ewald energy   TEWEN  =     98561.50198767
  -Hartree energ DENC   =   -110450.37269522
  -exchange      EXHF   =         0.00000000
  -V(xc)+E(xc)   XCENC  =        44.68947464
  PAW double counting   =     12332.57750634   -11896.82856096
  entropy T*S    EENTRO =        -0.03900923
  eigenvalues    EBANDS =      -701.97323058
  atomic energy  EATOM  =     11706.16234457
  Solvation  Ediel_sol  =         0.00000000
  ---------------------------------------------------
  free energy    TOTEN  =       -98.38378835 eV

  energy without entropy =      -98.34477912  energy(sigma->0) =      -98.37078527


--------------------------------------------------------------------------------------------------------




--------------------------------------- Iteration      1(   7)  ---------------------------------------


    POTLOK:  cpu time    0.0192: real time    0.0250
    SETDIJ:  cpu time    0.0023: real time    0.0023
     EDDAV:  cpu time   15.9022: real time   15.9054
       DOS:  cpu time    0.0015: real time    0.0015
    CHARGE:  cpu time    0.3448: real time    0.3448
    MIXING:  cpu time    0.0008: real time    0.0008
    --------------------------------------------
      LOOP:  cpu time   16.2709: real time   16.2798

 eigenvalue-minimisations  : 14496
 total energy-change (2. order) :-0.3486947E+02  (-0.3879888E+02)
 number of electron     161.0000066 magnetization 
 augmentation part       48.1752147 magnetization 

 Broyden mixing:
  rms(total) = 0.50356E+01    rms(broyden)= 0.50355E+01
  rms(prec ) = 0.59412E+01
  weight for this iteration     100.00

 eigenvalues of (default mixing * dielectric matrix)
  average eigenvalue GAMMA=   1.0410
  1.8646  0.2174

 Free energy of the ion-electron system (eV)
  ---------------------------------------------------
  alpha Z        PSCENC =       305.89839443
  Ewald energy   TEWEN  =     98561.50198767
  -Hartree energ DENC   =   -110599.13213684
  -exchange      EXHF   =         0.00000000
  -V(xc)+E(xc)   XCENC  =        43.62641752
  PAW double counting   =     13161.19883527   -12735.17810189
  entropy T*S    EENTRO =         0.00064099
  eigenvalues    EBANDS =      -577.33163663
  atomic energy  EATOM  =     11706.16234457
  Solvation  Ediel_sol  =         0.00000000
  ---------------------------------------------------
  free energy    TOTEN  =      -133.25325490 eV

  energy without entropy =     -133.25389589  energy(sigma->0) =     -133.25346856


--------------------------------------------------------------------------------------------------------




--------------------------------------- Iteration      1(   8)  ---------------------------------------


    POTLOK:  cpu time    0.0176: real time    0.0177
    SETDIJ:  cpu time    0.0023: real time    0.0023
     EDDAV:  cpu time   15.9170: real time   15.9176
       DOS:  cpu time    0.0016: real time    0.0016
    CHARGE:  cpu time    0.3449: real time    0.3449
    MIXING:  cpu time    0.0008: real time    0.0008
    --------------------------------------------
      LOOP:  cpu time   16.2841: real time   16.2848

 eigenvalue-minimisations  : 14472
 total energy-change (2. order) : 0.1675574E+02  (-0.1535233E+02)
 number of electron     161.0000051 magnetization 
 augmentation part       49.7602971 magnetization 

 Broyden mixing:
  rms(total) = 0.39128E+01    rms(broyden)= 0.39127E+01
  rms(prec ) = 0.45230E+01
  weight for this iteration     100.00

 eigenvalues of (default mixing * dielectric matrix)
  average eigenvalue GAMMA=   0.8636
  2.1018  0.2446  0.2446

 Free energy of the ion-electron system (eV)
  ---------------------------------------------------
  alpha Z        PSCENC =       305.89839443
  Ewald energy   TEWEN  =     98561.50198767
  -Hartree energ DENC   =   -110543.12904051
  -exchange      EXHF   =         0.00000000
  -V(xc)+E(xc)   XCENC  =        42.77203592
  PAW double counting   =     13873.41019163   -13457.03383712
  entropy T*S    EENTRO =         0.00419693
  eigenvalues    EBANDS =      -606.08378888
  atomic energy  EATOM  =     11706.16234457
  Solvation  Ediel_sol  =         0.00000000
  ---------------------------------------------------
  free energy    TOTEN  =      -116.49751536 eV

  energy without entropy =     -116.50171229  energy(sigma->0) =     -116.49891434


--------------------------------------------------------------------------------------------------------




--------------------------------------- Iteration      1(   9)  ---------------------------------------


    POTLOK:  cpu time    0.0179: real time    0.0194
    SETDIJ:  cpu time    0.0023: real time    0.0023
     EDDAV:  cpu time   15.9680: real time   15.9731
       DOS:  cpu time    0.0016: real time    0.0016
    CHARGE:  cpu time    0.3469: real time    0.3469
    MIXING:  cpu time    0.0009: real time    0.0009
    --------------------------------------------
      LOOP:  cpu time   16.3377: real time   16.3443

 eigenvalue-minimisations  : 14400
 total energy-change (2. order) : 0.9141007E+01  (-0.1499736E+02)
 number of electron     161.0000065 magnetization 
 augmentation part       50.1419222 magnetization 

 Broyden mixing:
  rms(total) = 0.25613E+01    rms(broyden)= 0.25612E+01
  rms(prec ) = 0.33851E+01
  weight for this iteration     100.00

 eigenvalues of (default mixing * dielectric matrix)
  average eigenvalue GAMMA=   0.8333
  2.2086  0.6270  0.3460  0.1515

 Free energy of the ion-electron system (eV)
  ---------------------------------------------------
  alpha Z        PSCENC =       305.89839443
  Ewald energy   TEWEN  =     98561.50198767
  -Hartree energ DENC   =   -110446.30792750
  -exchange      EXHF   =         0.00000000
  -V(xc)+E(xc)   XCENC  =        42.57677557
  PAW double counting   =     14174.92039125   -13761.96049887
  entropy T*S    EENTRO =        -0.01532443
  eigenvalues    EBANDS =      -690.13265144
  atomic energy  EATOM  =     11706.16234457
  Solvation  Ediel_sol  =         0.00000000
  ---------------------------------------------------
  free energy    TOTEN  =      -107.35650875 eV

  energy without entropy =     -107.34118432  energy(sigma->0) =     -107.35140061


--------------------------------------------------------------------------------------------------------




--------------------------------------- Iteration      1(  10)  ---------------------------------------


    POTLOK:  cpu time    0.0195: real time    0.0199
    SETDIJ:  cpu time    0.0023: real time    0.0023
     EDDAV:  cpu time   14.6785: real time   14.6846
       DOS:  cpu time    0.0015: real time    0.0015
    CHARGE:  cpu time    0.3452: real time    0.3453
    MIXING:  cpu time    0.0008: real time    0.0008
    --------------------------------------------
      LOOP:  cpu time   15.0479: real time   15.0544

 eigenvalue-minimisations  : 13056
 total energy-change (2. order) : 0.4423607E+01  (-0.1300580E+02)
 number of electron     161.0000061 magnetization 
 augmentation part       50.2633444 magnetization 

 Broyden mixing:
  rms(total) = 0.25203E+01    rms(broyden)= 0.25202E+01
  rms(prec ) = 0.27496E+01
  weight for this iteration     100.00

 eigenvalues of (default mixing * dielectric matrix)
  average eigenvalue GAMMA=   0.7092
  2.2376  0.6029  0.3654  0.2054  0.1346

 Free energy of the ion-electron system (eV)
  ---------------------------------------------------
  alpha Z        PSCENC =       305.89839443
  Ewald energy   TEWEN  =     98561.50198767
  -Hartree energ DENC   =   -110482.76354516
  -exchange      EXHF   =         0.00000000
  -V(xc)+E(xc)   XCENC  =        43.07059624
  PAW double counting   =     14396.43429024   -13983.20354227
  entropy T*S    EENTRO =        -0.03754494
  eigenvalues    EBANDS =      -649.99588223
  atomic energy  EATOM  =     11706.16234457
  Solvation  Ediel_sol  =         0.00000000
  ---------------------------------------------------
  free energy    TOTEN  =      -102.93290146 eV

  energy without entropy =     -102.89535652  energy(sigma->0) =     -102.92038648


--------------------------------------------------------------------------------------------------------




--------------------------------------- Iteration      1(  11)  ---------------------------------------


    POTLOK:  cpu time    0.0177: real time    0.0247
    SETDIJ:  cpu time    0.0023: real time    0.0023
     EDDAV:  cpu time   16.0723: real time   16.0728
       DOS:  cpu time    0.0015: real time    0.0015
    CHARGE:  cpu time    0.3455: real time    0.3457
    MIXING:  cpu time    0.0009: real time    0.0009
    --------------------------------------------
      LOOP:  cpu time   16.4403: real time   16.4480

 eigenvalue-minimisations  : 14592
 total energy-change (2. order) : 0.6017907E+01  (-0.1445420E+01)
 number of electron     161.0000056 magnetization 
 augmentation part       50.2331119 magnetization 

 Broyden mixing:
  rms(total) = 0.95879E+00    rms(broyden)= 0.95872E+00
  rms(prec ) = 0.10694E+01
  weight for this iteration     100.00

 eigenvalues of (default mixing * dielectric matrix)
  average eigenvalue GAMMA=   0.6751
  1.9758  0.8058  0.4136  0.4136  0.2975  0.1446

 Free energy of the ion-electron system (eV)
  ---------------------------------------------------
  alpha Z        PSCENC =       305.89839443
  Ewald energy   TEWEN  =     98561.50198767
  -Hartree energ DENC   =   -110469.61642198
  -exchange      EXHF   =         0.00000000
  -V(xc)+E(xc)   XCENC  =        43.04049546
  PAW double counting   =     14451.01372705   -14038.02587016
  entropy T*S    EENTRO =        -0.01902006
  eigenvalues    EBANDS =      -656.87063170
  atomic energy  EATOM  =     11706.16234457
  Solvation  Ediel_sol  =         0.00000000
  ---------------------------------------------------
  free energy    TOTEN  =       -96.91499472 eV

  energy without entropy =      -96.89597466  energy(sigma->0) =      -96.90865470


--------------------------------------------------------------------------------------------------------




--------------------------------------- Iteration      1(  12)  ---------------------------------------


    POTLOK:  cpu time    0.0183: real time    0.0185
    SETDIJ:  cpu time    0.0024: real time    0.0024
     EDDAV:  cpu time   16.7740: real time   16.7847
       DOS:  cpu time    0.0015: real time    0.0015
    CHARGE:  cpu time    0.3460: real time    0.3461
    MIXING:  cpu time    0.0010: real time    0.0010
    --------------------------------------------
      LOOP:  cpu time   17.1431: real time   17.1543

 eigenvalue-minimisations  : 15312
 total energy-change (2. order) : 0.7671004E+00  (-0.4813681E+00)
 number of electron     161.0000055 magnetization 
 augmentation part       50.1257417 magnetization 

 Broyden mixing:
  rms(total) = 0.58636E+00    rms(broyden)= 0.58628E+00
  rms(prec ) = 0.61681E+00
  weight for this iteration     100.00

 eigenvalues of (default mixing * dielectric matrix)
  average eigenvalue GAMMA=   0.6266
  1.9994  0.6355  0.5283  0.5283  0.1444  0.2750  0.2750

 Free energy of the ion-electron system (eV)
  ---------------------------------------------------
  alpha Z        PSCENC =       305.89839443
  Ewald energy   TEWEN  =     98561.50198767
  -Hartree energ DENC   =   -110466.18113002
  -exchange      EXHF   =         0.00000000
  -V(xc)+E(xc)   XCENC  =        43.13210631
  PAW double counting   =     14331.93918457   -13917.66070970
  entropy T*S    EENTRO =        -0.02439607
  eigenvalues    EBANDS =      -660.91567605
  atomic energy  EATOM  =     11706.16234457
  Solvation  Ediel_sol  =         0.00000000
  ---------------------------------------------------
  free energy    TOTEN  =       -96.14789429 eV

  energy without entropy =      -96.12349822  energy(sigma->0) =      -96.13976227


--------------------------------------------------------------------------------------------------------




--------------------------------------- Iteration      1(  13)  ---------------------------------------


    POTLOK:  cpu time    0.0179: real time    0.0195
    SETDIJ:  cpu time    0.0024: real time    0.0024
     EDDAV:  cpu time   14.5005: real time   14.5029
       DOS:  cpu time    0.0015: real time    0.0015
    CHARGE:  cpu time    0.3464: real time    0.3464
    MIXING:  cpu time    0.0010: real time    0.0010
    --------------------------------------------
      LOOP:  cpu time   14.8698: real time   14.8738

 eigenvalue-minimisations  : 12768
 total energy-change (2. order) : 0.2222869E+00  (-0.1422096E+00)
 number of electron     161.0000055 magnetization 
 augmentation part       50.1354529 magnetization 

 Broyden mixing:
  rms(total) = 0.31172E+00    rms(broyden)= 0.31169E+00
  rms(prec ) = 0.34198E+00
  weight for this iteration     100.00

 eigenvalues of (default mixing * dielectric matrix)
  average eigenvalue GAMMA=   0.6841
  2.0607  0.8707  0.8707  0.5279  0.3850  0.3068  0.3068  0.1443

 Free energy of the ion-electron system (eV)
  ---------------------------------------------------
  alpha Z        PSCENC =       305.89839443
  Ewald energy   TEWEN  =     98561.50198767
  -Hartree energ DENC   =   -110465.24598034
  -exchange      EXHF   =         0.00000000
  -V(xc)+E(xc)   XCENC  =        43.16270520
  PAW double counting   =     14322.39344275   -13908.20441405
  entropy T*S    EENTRO =        -0.02728286
  eigenvalues    EBANDS =      -661.56680478
  atomic energy  EATOM  =     11706.16234457
  Solvation  Ediel_sol  =         0.00000000
  ---------------------------------------------------
  free energy    TOTEN  =       -95.92560741 eV

  energy without entropy =      -95.89832455  energy(sigma->0) =      -95.91651312


--------------------------------------------------------------------------------------------------------




--------------------------------------- Iteration      1(  14)  ---------------------------------------


    POTLOK:  cpu time    0.0181: real time    0.0197
    SETDIJ:  cpu time    0.0024: real time    0.0024
     EDDAV:  cpu time   15.1810: real time   15.1815
       DOS:  cpu time    0.0016: real time    0.0016
    CHARGE:  cpu time    0.3473: real time    0.3473
    MIXING:  cpu time    0.0014: real time    0.0014
    --------------------------------------------
      LOOP:  cpu time   15.5518: real time   15.5539

 eigenvalue-minimisations  : 13488
 total energy-change (2. order) :-0.1164255E+00  (-0.1602421E+00)
 number of electron     161.0000051 magnetization 
 augmentation part       50.1189198 magnetization 

 Broyden mixing:
  rms(total) = 0.49826E+00    rms(broyden)= 0.49824E+00
  rms(prec ) = 0.60337E+00
  weight for this iteration     100.00

 eigenvalues of (default mixing * dielectric matrix)
  average eigenvalue GAMMA=   0.6960
  2.1653  0.9449  0.9449  0.8184  0.3606  0.3606  0.1442  0.2627  0.2627

 Free energy of the ion-electron system (eV)
  ---------------------------------------------------
  alpha Z        PSCENC =       305.89839443
  Ewald energy   TEWEN  =     98561.50198767
  -Hartree energ DENC   =   -110467.58958024
  -exchange      EXHF   =         0.00000000
  -V(xc)+E(xc)   XCENC  =        43.22209664
  PAW double counting   =     14301.17424633   -13887.04486949
  entropy T*S    EENTRO =        -0.02325298
  eigenvalues    EBANDS =      -659.34339981
  atomic energy  EATOM  =     11706.16234457
  Solvation  Ediel_sol  =         0.00000000
  ---------------------------------------------------
  free energy    TOTEN  =       -96.04203289 eV

  energy without entropy =      -96.01877991  energy(sigma->0) =      -96.03428190


--------------------------------------------------------------------------------------------------------




--------------------------------------- Iteration      1(  15)  ---------------------------------------


    POTLOK:  cpu time    0.0199: real time    0.0272
    SETDIJ:  cpu time    0.0024: real time    0.0024
     EDDAV:  cpu time   14.8260: real time   14.8275
       DOS:  cpu time    0.0015: real time    0.0015
    CHARGE:  cpu time    0.3463: real time    0.3463
    MIXING:  cpu time    0.0012: real time    0.0012
    --------------------------------------------
      LOOP:  cpu time   15.1973: real time   15.2061

 eigenvalue-minimisations  : 12768
 total energy-change (2. order) : 0.1318256E+00  (-0.1048647E+00)
 number of electron     161.0000052 magnetization 
 augmentation part       50.1125576 magnetization 

 Broyden mixing:
  rms(total) = 0.22668E+00    rms(broyden)= 0.22665E+00
  rms(prec ) = 0.23372E+00
  weight for this iteration     100.00

 eigenvalues of (default mixing * dielectric matrix)
  average eigenvalue GAMMA=   0.7357
  2.2625  1.2026  1.2026  0.8528  0.4197  0.3717  0.3717  0.1442  0.2645  0.2645

 Free energy of the ion-electron system (eV)
  ---------------------------------------------------
  alpha Z        PSCENC =       305.89839443
  Ewald energy   TEWEN  =     98561.50198767
  -Hartree energ DENC   =   -110471.51503570
  -exchange      EXHF   =         0.00000000
  -V(xc)+E(xc)   XCENC  =        43.21383399
  PAW double counting   =     14304.47015614   -13890.61701199
  entropy T*S    EENTRO =        -0.02426868
  eigenvalues    EBANDS =      -655.00060769
  atomic energy  EATOM  =     11706.16234457
  Solvation  Ediel_sol  =         0.00000000
  ---------------------------------------------------
  free energy    TOTEN  =       -95.91020728 eV

  energy without entropy =      -95.88593859  energy(sigma->0) =      -95.90211772


--------------------------------------------------------------------------------------------------------




--------------------------------------- Iteration      1(  16)  ---------------------------------------


    POTLOK:  cpu time    0.0180: real time    0.0216
    SETDIJ:  cpu time    0.0023: real time    0.0023
     EDDAV:  cpu time   14.4364: real time   14.4451
       DOS:  cpu time    0.0015: real time    0.0015
    CHARGE:  cpu time    0.3474: real time    0.3474
    MIXING:  cpu time    0.0014: real time    0.0014
    --------------------------------------------
      LOOP:  cpu time   14.8069: real time   14.8193

 eigenvalue-minimisations  : 12696
 total energy-change (2. order) :-0.1984903E-02  (-0.2324396E-01)
 number of electron     161.0000054 magnetization 
 augmentation part       50.0865630 magnetization 

 Broyden mixing:
  rms(total) = 0.17350E+00    rms(broyden)= 0.17348E+00
  rms(prec ) = 0.18708E+00
  weight for this iteration     100.00

 eigenvalues of (default mixing * dielectric matrix)
  average eigenvalue GAMMA=   0.7416
[...]
     86      -0.2998     -0.02005
     87       0.7757     -0.00000
     88       1.2783     -0.00000
     89       1.4615     -0.00000
     90       1.4981     -0.00000
     91       1.6971     -0.00000
     92       2.0303     -0.00000
     93       2.4131     -0.00000
     94       3.0266     -0.00000
     95       3.0675     -0.00000
     96       3.8695     -0.00000

 k-point    51 :      -0.4375    0.4375    0.0000
  band No.  band energies     occupation 
      1      -8.1843      2.00000
      2      -8.1288      2.00000
      3      -7.2732      2.00000
      4      -7.1327      2.00000
      5      -6.6824      2.00000
      6      -6.5224      2.00000
      7      -6.4191      2.00000
      8      -6.3283      2.00000
      9      -6.2354      2.00000
     10      -6.1656      2.00000
     11      -6.0955      2.00000
     12      -6.0419      2.00000
     13      -6.0128      2.00000
     14      -5.8718      2.00000
     15      -5.7786      2.00000
     16      -5.6250      2.00000
     17      -5.5757      2.00000
     18      -5.5332      2.00000
     19      -5.4402      2.00000
     20      -5.4047      2.00000
     21      -5.2799      2.00000
     22      -5.1997      2.00000
     23      -5.1444      2.00000
     24      -5.0940      2.00000
     25      -5.0478      2.00000
     26      -5.0393      2.00000
     27      -4.9518      2.00000
     28      -4.9118      2.00000
     29      -4.7369      2.00000
     30      -4.6917      2.00000
     31      -4.5527      2.00000
     32      -4.5207      2.00000
     33      -4.4766      2.00000
     34      -4.4326      2.00000
     35      -4.3414      2.00000
     36      -4.2694      2.00000
     37      -4.1994      2.00000
     38      -4.1299      2.00000
     39      -4.0490      2.00000
     40      -4.0236      2.00000
     41      -3.9731      2.00000
     42      -3.8966      2.00000
     43      -3.8049      2.00000
     44      -3.7592      2.00000
     45      -3.6879      2.00000
     46      -3.6037      2.00000
     47      -3.5803      2.00000
     48      -3.5236      2.00000
     49      -3.4760      2.00000
     50      -3.4587      2.00000
     51      -3.3936      2.00000
     52      -3.2393      2.00000
     53      -3.1904      2.00000
     54      -3.0137      2.00000
     55      -2.8797      2.00000
     56      -2.8252      2.00000
     57      -2.7637      2.00000
     58      -2.7215      2.00000
     59      -2.6081      2.00000
     60      -2.5760      2.00000
     61      -2.4816      2.00000
     62      -2.3738      2.00000
     63      -2.3209      2.00000
     64      -2.2650      2.00000
     65      -2.2399      2.00000
     66      -2.1054      2.00000
     67      -2.0410      2.00000
     68      -1.9971      2.00000
     69      -1.9385      2.00000
     70      -1.9121      2.00000
     71      -1.7481      2.00000
     72      -1.6961      2.00000
     73      -1.5773      2.00000
     74      -1.5581      2.00000
     75      -1.4223      2.00000
     76      -1.2833      2.00020
     77      -1.1947      2.00188
     78      -1.0543      2.02556
     79      -1.0330      2.03385
     80      -0.8262      1.92247
     81      -0.7961      1.79622
     82      -0.6714      0.88193
     83      -0.6317      0.56336
     84      -0.5016     -0.02915
     85      -0.4111     -0.06552
     86      -0.3040     -0.02135
     87       0.3343     -0.00000
     88       0.5796     -0.00000
     89       0.8642     -0.00000
     90       1.5258     -0.00000
     91       1.6380     -0.00000
     92       2.4734     -0.00000
     93       2.7688     -0.00000
     94       3.2764     -0.00000
     95       3.5830     -0.00000
     96       4.0459     -0.00000

 k-point    52 :       0.1250   -0.4375    0.0000
  band No.  band energies     occupation 
      1      -8.1896      2.00000
      2      -8.1240      2.00000
      3      -7.2793      2.00000
      4      -7.1260      2.00000
      5      -6.6845      2.00000
      6      -6.5181      2.00000
      7      -6.4210      2.00000
      8      -6.3394      2.00000
      9      -6.2428      2.00000
     10      -6.1569      2.00000
     11      -6.0933      2.00000
     12      -6.0377      2.00000
     13      -6.0243      2.00000
     14      -5.8725      2.00000
     15      -5.7801      2.00000
     16      -5.6353      2.00000
     17      -5.5713      2.00000
     18      -5.5325      2.00000
     19      -5.4327      2.00000
     20      -5.3935      2.00000
     21      -5.2771      2.00000
     22      -5.1978      2.00000
     23      -5.1481      2.00000
     24      -5.0989      2.00000
     25      -5.0554      2.00000
     26      -5.0317      2.00000
     27      -4.9500      2.00000
     28      -4.9224      2.00000
     29      -4.7377      2.00000
     30      -4.6566      2.00000
     31      -4.5566      2.00000
     32      -4.5269      2.00000
     33      -4.4758      2.00000
     34      -4.4204      2.00000
     35      -4.3442      2.00000
     36      -4.2830      2.00000
     37      -4.2021      2.00000
     38      -4.1268      2.00000
     39      -4.0373      2.00000
     40      -4.0119      2.00000
     41      -3.9776      2.00000
     42      -3.9354      2.00000
     43      -3.8025      2.00000
     44      -3.7363      2.00000
     45      -3.6830      2.00000
     46      -3.6182      2.00000
     47      -3.5750      2.00000
     48      -3.4955      2.00000
     49      -3.4796      2.00000
     50      -3.4518      2.00000
     51      -3.3802      2.00000
     52      -3.2560      2.00000
     53      -3.2008      2.00000
     54      -3.0381      2.00000
     55      -2.8730      2.00000
     56      -2.8124      2.00000
     57      -2.7345      2.00000
     58      -2.7131      2.00000
     59      -2.6174      2.00000
     60      -2.5856      2.00000
     61      -2.4847      2.00000
     62      -2.4030      2.00000
     63      -2.3308      2.00000
     64      -2.2964      2.00000
     65      -2.2139      2.00000
     66      -2.1340      2.00000
     67      -2.0991      2.00000
     68      -2.0117      2.00000
     69      -1.9057      2.00000
     70      -1.8303      2.00000
     71      -1.7491      2.00000
     72      -1.7050      2.00000
     73      -1.6489      2.00000
     74      -1.4719      2.00000
     75      -1.4401      2.00000
     76      -1.3888      2.00001
     77      -1.2141      2.00119
     78      -1.0286      2.03573
     79      -0.9542      2.06720
     80      -0.8207      1.90268
     81      -0.7510      1.52309
     82      -0.6624      0.80710
     83      -0.6159      0.44922
     84      -0.4819     -0.05371
     85      -0.4442     -0.07081
     86      -0.3085     -0.02279
     87       0.3360     -0.00000
     88       0.5706     -0.00000
     89       0.8780     -0.00000
     90       1.5341     -0.00000
     91       1.5934     -0.00000
     92       2.4774     -0.00000
     93       2.7585     -0.00000
     94       3.2861     -0.00000
     95       3.5986     -0.00000
     96       4.0096     -0.00000


--------------------------------------------------------------------------------------------------------


 soft charge-density along one line, spin component           1
         0         1         2         3         4         5         6         7         8         9
 total charge-density along one line
 
 pseudopotential strength for first ion, spin component:           1
 -8.014   0.001  -0.000  -0.005   0.000  -8.161   0.001  -0.000
  0.001  -7.934   0.000   0.000  -0.006   0.001  -8.082   0.000
 -0.000   0.000  -7.924   0.000  -0.000  -0.000   0.000  -8.073
 -0.005   0.000   0.000  -7.933   0.001  -0.005   0.000   0.000
  0.000  -0.006  -0.000   0.001  -8.014   0.000  -0.006  -0.000
 -8.161   0.001  -0.000  -0.005   0.000  -8.292   0.001  -0.000
  0.001  -8.082   0.000   0.000  -0.006   0.001  -8.215   0.000
 -0.000   0.000  -8.073   0.000  -0.000  -0.000   0.000  -8.206
 -0.005   0.000   0.000  -8.082   0.001  -0.005   0.000   0.000
  0.000  -0.006  -0.000   0.001  -8.161   0.000  -0.006  -0.000
 -0.000  -0.000  -0.026  -0.000  -0.000  -0.000  -0.000  -0.025
 -0.000  -0.000  -0.037  -0.000  -0.000  -0.000  -0.000  -0.037
 -0.000  -0.001   0.000   0.000   0.000  -0.000  -0.000   0.000
  0.000  -0.000  -0.003  -0.000   0.000   0.000  -0.000  -0.002
  0.000   0.000   0.000  -0.001  -0.000   0.000   0.000   0.000
 -0.000   0.001   0.000   0.000   0.001  -0.000   0.001   0.000
  0.000  -0.000  -0.001  -0.000   0.000   0.000  -0.000  -0.001
  0.000   0.000   0.000   0.001  -0.000   0.000   0.000   0.000
 total augmentation occupancy for first ion, spin component:           1
  4.790   0.015   0.001  -0.013   0.012  -2.967  -0.011  -0.000  -0.066  -0.009   0.002   0.002  -0.000   0.000  -0.048  -0.000
  0.015   4.844  -0.006   0.000  -0.030  -0.011  -2.554   0.004  -0.000  -0.051   0.001   0.001  -0.218   0.000   0.001   0.011
  0.001  -0.006   5.444  -0.010   0.001  -0.000   0.004  -3.251   0.007  -0.000   0.868  -0.074   0.002  -0.372   0.003   0.000
 -0.013   0.000  -0.010   4.844   0.015  -0.064  -0.000   0.007  -2.554  -0.011   0.002   0.001   0.001   0.000  -0.217   0.000
  0.012  -0.030   0.001   0.015   4.776  -0.009  -0.053  -0.000  -0.011  -2.956   0.001   0.001  -0.048   0.000  -0.000   0.002
 -2.967  -0.011  -0.000  -0.064  -0.009   3.004   0.009   0.000   0.124   0.007  -0.001  -0.002   0.000  -0.000   0.045  -0.000
 -0.011  -2.554   0.004  -0.000  -0.053   0.009   2.227  -0.003   0.000   0.114  -0.000  -0.001   0.202  -0.000  -0.000  -0.009
 -0.000   0.004  -3.251   0.007  -0.000   0.000  -0.003   3.005  -0.005   0.000  -0.791   0.084  -0.001   0.370  -0.002   0.000
 -0.066  -0.000   0.007  -2.554  -0.011   0.124   0.000  -0.005   2.228   0.009  -0.000  -0.002  -0.000  -0.000   0.201  -0.000
 -0.009  -0.051  -0.000  -0.011  -2.956   0.007   0.114   0.000   0.009   2.996  -0.001  -0.001   0.044  -0.000   0.000  -0.001
  0.002   0.001   0.868   0.002   0.001  -0.001  -0.000  -0.791  -0.000  -0.001   2.543  -0.579   0.000   0.164   0.000  -0.000
  0.002   0.001  -0.074   0.001   0.001  -0.002  -0.001   0.084  -0.002  -0.001  -0.579   0.171   0.000  -0.076   0.000   0.000
 -0.000  -0.218   0.002   0.001  -0.048   0.000   0.202  -0.001  -0.000   0.044   0.000   0.000   0.233  -0.000   0.000  -0.007
  0.000   0.000  -0.372   0.000   0.000  -0.000  -0.000   0.370  -0.000  -0.000   0.164  -0.076  -0.000   0.129  -0.001   0.000
 -0.048   0.001   0.003  -0.217  -0.000   0.045  -0.000  -0.002   0.201   0.000   0.000   0.000   0.000  -0.001   0.233  -0.000
 -0.000   0.011   0.000   0.000   0.002  -0.000  -0.009   0.000  -0.000  -0.001  -0.000   0.000  -0.007   0.000  -0.000   0.000
  0.000   0.000   0.009   0.000   0.000  -0.000  -0.000  -0.011  -0.000  -0.000  -0.008   0.003   0.000  -0.004   0.000   0.000
  0.002   0.000   0.000   0.011  -0.000  -0.001  -0.000   0.000  -0.009  -0.000  -0.000   0.000  -0.000   0.000  -0.007   0.000


------------------------ aborting loop because EDIFF is reached ----------------------------------------



 DIPCOR: dipole corrections for dipol
 direction  3 min pos   284,
 dipolmoment           0.000000      0.000000     -0.043626 electrons x Angstroem
 Tr[quadrupol]      -934.611125

 energy correction for charged system         0.000000 eV
 dipol+quadrupol energy correction            0.000209 eV
 added-field ion interaction          0.000000 eV  (added to PSCEN)

 
  *************** adding dipol energy to TOTEN NOW **************** 
    CHARGE:  cpu time    0.3462: real time    0.3463
    FORLOC:  cpu time    0.0039: real time    0.0039
    FORNL :  cpu time    4.7983: real time    4.7998
    STRESS:  cpu time   16.4832: real time   16.4919
    FORCOR:  cpu time    0.0200: real time    0.0206
    FORHAR:  cpu time    0.0075: real time    0.0075
    MIXING:  cpu time    0.0031: real time    0.0031
    OFIELD:  cpu time    0.0000: real time    0.0001

  FORCE on cell =-STRESS in cart. coord.  units (eV):
  Direction    XX          YY          ZZ          XY          YZ          ZX
  --------------------------------------------------------------------------------------
  Alpha Z   305.89839   305.89839   305.89839
  Ewald  107433.26895107431.65026************     1.40183    -0.05770    -0.09994
  Hartree109783.60626109782.23734************     1.18553    -0.07911    -0.13703
  E(xc)    -712.76670  -712.80428  -717.25809     0.03255     0.00651     0.01128
  Local  ************************222525.41399    -1.95086     0.20497     0.35501
  n-local    54.86724    61.40140    45.05805     2.37726     0.46252    -0.16246
  augment   835.12354   835.60445   859.40759    -0.41648    -0.03976    -0.06894
  Kinetic  2291.31034  2296.61933  2353.42617     0.49076     0.44343    -0.41967
  Fock        0.00000     0.00000     0.00000     0.00000     0.00000     0.00000
  -------------------------------------------------------------------------------------
  Total     -11.63073   -11.44493    -0.98877    -0.16091     0.01011     0.01751
  in kB     -22.61117   -22.24995    -1.92226    -0.31282     0.01965     0.03404
  external pressure =      -15.59 kB  Pullay stress =        0.00 kB


 VOLUME and BASIS-vectors are now :
 -----------------------------------------------------------------------------
  energy-cutoff  :      350.00
  volume of cell :      824.13
      direct lattice vectors                 reciprocal lattice vectors
     5.557859300  0.000000000  0.000000000     0.179925390 -0.103879972  0.000000000
     2.778929650  4.813247345  0.000000000     0.000000000  0.207759944  0.000000000
     0.000000000  0.000000000 30.806959674     0.000000000  0.000000000  0.032460198

  length of vectors
     5.557859300  5.557859300 30.806959674     0.207759944  0.207759944  0.032460198


 FORCES acting on ions
    electron-ion (+dipol)            ewald-force                    non-local-force                 convergence-correction
 -----------------------------------------------------------------------------------------------
   0.247E-02 0.142E-02 0.310E+04   0.226E-04 0.131E-04 -.310E+04   0.161E-01 0.932E-02 -.311E+00   -.340E-04 -.196E-04 -.933E-02
   -.165E-01 -.252E+01 0.282E+04   -.207E-04 0.264E+01 -.282E+04   -.273E-02 -.489E-02 -.101E+01   0.293E-04 -.135E-03 -.854E-02
   -.219E+01 0.124E+01 0.282E+04   0.229E+01 -.132E+01 -.282E+04   -.560E-02 0.799E-04 -.101E+01   -.102E-03 0.927E-04 -.854E-02
   0.217E+01 0.125E+01 0.282E+04   -.229E+01 -.132E+01 -.282E+04   0.239E-01 0.138E-01 -.101E+01   0.103E-03 0.598E-04 -.850E-02
   -.551E+01 -.318E+01 0.909E+03   0.559E+01 0.323E+01 -.908E+03   0.744E-01 0.429E-01 -.619E+00   0.409E-03 0.236E-03 -.232E-01
   0.550E+01 -.348E+01 0.909E+03   -.559E+01 0.351E+01 -.908E+03   -.562E-01 0.446E-01 -.456E+00   -.414E-03 0.819E-04 -.231E-01
   -.263E+00 0.651E+01 0.909E+03   0.248E+00 -.660E+01 -.908E+03   0.105E-01 -.710E-01 -.456E+00   -.136E-03 -.400E-03 -.231E-01
   0.250E+00 0.144E+00 0.931E+03   -.237E+00 -.137E+00 -.932E+03   -.303E-02 -.175E-02 0.722E-01   0.125E-03 0.721E-04 -.236E-01
   0.471E+01 -.271E+01 -.977E+03   -.491E+01 0.244E+01 0.978E+03   0.286E-01 0.386E+00 0.112E+00   0.209E-03 -.190E-03 -.182E-01
   -.473E+01 -.273E+01 -.972E+03   0.490E+01 0.283E+01 0.972E+03   -.351E-01 -.203E-01 0.201E+00   -.221E-03 -.127E-03 -.183E-01
   -.562E-01 -.325E-01 -.973E+03   0.379E+00 0.219E+00 0.972E+03   -.347E+00 -.200E+00 0.200E+00   0.456E-04 0.263E-04 -.181E-01
   0.906E-02 0.544E+01 -.977E+03   -.345E+00 -.548E+01 0.978E+03   0.348E+00 -.168E+00 0.112E+00   -.598E-04 0.276E-03 -.182E-01
   -.381E-01 -.220E-01 -.281E+04   0.244E-01 0.141E-01 0.282E+04   0.604E-01 0.349E-01 -.632E+01   -.126E-03 -.725E-04 -.337E-02
   0.157E+00 -.320E+01 -.280E+04   -.112E+00 0.304E+01 0.280E+04   -.770E-01 0.158E+00 0.947E+00   0.153E-03 -.968E-04 -.411E-02
   -.269E+01 0.174E+01 -.280E+04   0.257E+01 -.162E+01 0.280E+04   0.986E-01 -.146E+00 0.947E+00   -.736E-05 0.181E-03 -.411E-02
   0.260E+01 0.150E+01 -.252E+04   -.252E+01 -.145E+01 0.252E+04   -.467E-01 -.270E-01 0.318E+00   0.203E-04 0.117E-04 -.366E-02
   -.304E-02 -.175E-02 -.375E+03   0.112E-02 0.645E-03 0.378E+03   -.187E-03 -.108E-03 -.310E+01   -.699E-06 -.404E-06 0.332E-03
 -----------------------------------------------------------------------------------------------
   -.871E-01 -.503E-01 0.116E+02   0.287E-14 0.134E-13 0.625E-12   0.871E-01 0.503E-01 -.114E+02   -.605E-05 -.349E-05 -.216E+00
 
 
 POSITION                                       TOTAL-FORCE (eV/Angst)
 -----------------------------------------------------------------------------------
      0.00000      0.00000     12.00000         0.018591      0.010734     -1.029406
      2.77893      0.00000     12.00000        -0.019190      0.121648      0.102028
      1.38946      2.40662     12.00000         0.095755     -0.077443      0.102028
      4.16839      2.40662     12.00000        -0.096464     -0.055694      0.101341
      1.38832      0.80154     14.33833         0.158388      0.091446      0.359062
      4.16954      0.80154     14.33833        -0.142602      0.076570      0.147031
      2.77893      3.21016     14.33833        -0.004990     -0.161782      0.147031
      5.55786      3.20883     14.30267         0.010163      0.005867     -0.151240
      5.55786      1.59830     16.63736        -0.172102      0.113460      0.288278
      2.77893      1.60442     16.63406         0.138736      0.080099      0.533304
      6.95262      4.01410     16.63736        -0.023865     -0.013778     -0.061385
      4.16310      4.01410     16.63736         0.012208     -0.205775      0.288278
      0.00000      0.00000     19.07085         0.046559      0.026881      0.154939
      5.55786      4.80856     18.94595        -0.032445     -0.004817      0.112616
      6.94326      2.40897     18.94595        -0.020394     -0.025690      0.112616
      4.17246      2.40897     18.94595         0.033765      0.019494     -1.211689
      0.00000      0.00000     20.62632        -0.002113     -0.001220      0.005168
 -----------------------------------------------------------------------------------
    total drift:                                0.000075      0.000044     -0.003692


--------------------------------------------------------------------------------------------------------



  FREE ENERGIE OF THE ION-ELECTRON SYSTEM (eV)
  ---------------------------------------------------
  free  energy   TOTEN  =       -95.88769946 eV

  energy  without entropy=      -95.86279259  energy(sigma->0) =      -95.87939717
 


--------------------------------------------------------------------------------------------------------


    POTLOK:  cpu time    0.0215: real time    0.0220


--------------------------------------------------------------------------------------------------------


     LOOP+:  cpu time  496.4126: real time  496.6225
    4ORBIT:  cpu time    0.0000: real time    0.0000

 total amount of memory used by VASP MPI-rank0   455244. kBytes
=======================================================================

   base      :      30000. kBytes
   nonl-proj :     372843. kBytes
   fftplans  :       2015. kBytes
   grid      :       8030. kBytes
   one-center:        264. kBytes
   wavefun   :      42092. kBytes
 
  
  
 General timing and accounting informations for this job:
 ========================================================
  
                  Total CPU time used (sec):      502.062
                            User time (sec):      500.361
                          System time (sec):        1.701
                         Elapsed time (sec):      502.587
  
                   Maximum memory used (kb):      517484.
                   Average memory used (kb):           0.
  
                          Minor page faults:       106371
                          Major page faults:           40
                 Voluntary context switches:         1291
