<?xml version="1.0" encoding="ISO-8859-1"?>
<modeling>
 <generator>
  <i name="program" type="string">vasp </i>
  <i name="version" type="string">5.4.4.18Apr17-6-g9f103f2a35  </i>
  <i name="subversion" type="string">(build Apr 28 2017 10:53:45) complex            parallel </i>
  <i name="platform" type="string">LinuxIFC </i>
  <i name="date" type="string">2020 02 17 </i>
  <i name="time" type="string">09:19:50 </i>
 </generator>
 <incar>
  <i type="string" name="PREC">normal</i>
  <i type="int" name="ISPIN">     1</i>
  <i type="int" name="IBRION">     2</i>
  <i name="EDIFF">      0.00001000</i>
  <i name="EDIFFG">     -0.05000000</i>
  <i type="int" name="NSW">     0</i>
  <i name="ENCUT">    350.00000000</i>
  <i type="logical" name="LWAVE"> F  </i>
  <i type="logical" name="LCHARG"> F  </i>
  <v type="int" name="KPOINT_BSE">    -1     0     0     0</v>
  <i type="string" name="GGA"> PE</i>
  <i type="int" name="IDIPOL">     3</i>
 </incar>
 <structure name="primitive_cell" >
  <crystal>
   <varray name="basis" >
    <v>       5.55785930       0.00000000       0.00000000 </v>
    <v>       2.77892965       4.81324734       0.00000000 </v>
    <v>       0.00000000       0.00000000      30.80695967 </v>
   </varray>
   <i name="volume">    824.12780743 </i>
   <varray name="rec_basis" >
    <v>       0.17992539      -0.10387997       0.00000000 </v>
    <v>       0.00000000       0.20775994       0.00000000 </v>
    <v>       0.00000000       0.00000000       0.03246020 </v>
   </varray>
  </crystal>
  <varray name="positions" >
   <v>       0.00000000       0.00000000       0.38952237 </v>
   <v>       0.00000000      -0.50000000       0.38952237 </v>
   <v>      -0.50000000      -0.50000000       0.38952237 </v>
   <v>      -0.50000000       0.00000000       0.38952237 </v>
   <v>       0.16652883       0.16652883       0.46542487 </v>
   <v>       0.16652883      -0.33305766       0.46542487 </v>
   <v>      -0.33305766       0.16652883       0.46542487 </v>
   <v>      -0.33333333      -0.33333333       0.46426737 </v>
   <v>      -0.16603131      -0.16603131      -0.45994801 </v>
   <v>      -0.16603131       0.33206261      -0.45994801 </v>
   <v>       0.33206261      -0.16603131      -0.45994801 </v>
   <v>       0.33333333       0.33333333      -0.46005508 </v>
   <v>       0.00000000       0.00000000      -0.38095648 </v>
   <v>      -0.49951272      -0.00097456      -0.38501086 </v>
   <v>      -0.00097456      -0.49951272      -0.38501086 </v>
   <v>      -0.49951272      -0.49951272      -0.38501086 </v>
   <v>       0.00000000       0.00000000      -0.33046564 </v>
  </varray>
 </structure>
 <varray name="primitive_index" >
  <v type="int" >        1 </v>
  <v type="int" >        3 </v>
  <v type="int" >        4 </v>
  <v type="int" >        2 </v>
  <v type="int" >        5 </v>
  <v type="int" >        7 </v>
  <v type="int" >        6 </v>
  <v type="int" >        8 </v>
  <v type="int" >       11 </v>
  <v type="int" >        9 </v>
  <v type="int" >       12 </v>
  <v type="int" >       10 </v>
  <v type="int" >       13 </v>
  <v type="int" >       14 </v>
  <v type="int" >       15 </v>
  <v type="int" >       16 </v>
  <v type="int" >       17 </v>
 </varray>
 <kpoints>
  <generation param="Monkhorst-Pack">
   <v type="int" name="divisions">       8        8        1 </v>
   <v name="usershift">      0.00000000       0.00000000       0.00000000 </v>
   <v name="genvec1">      0.12500000       0.00000000       0.00000000 </v>
   <v name="genvec2">      0.00000000       0.12500000       0.00000000 </v>
   <v name="genvec3">      0.00000000       0.00000000       1.00000000 </v>
   <v name="shift">      0.50000000       0.50000000       0.00000000 </v>
  </generation>
  <varray name="kpointlist" >
   <v>       0.06250000       0.06250000       0.00000000 </v>
   <v>       0.00000000       0.06250000       0.00000000 </v>
   <v>       0.18750000       0.06250000       0.00000000 </v>
   <v>       0.12500000       0.18750000       0.00000000 </v>
   <v>      -0.06250000       0.12500000       0.00000000 </v>
   <v>       0.31250000       0.06250000       0.00000000 </v>
   <v>       0.25000000       0.31250000       0.00000000 </v>
   <v>      -0.06250000       0.25000000       0.00000000 </v>
   <v>       0.43750000       0.06250000       0.00000000 </v>
   <v>       0.37500000       0.43750000       0.00000000 </v>
   <v>      -0.06250000       0.37500000       0.00000000 </v>
   <v>      -0.43750000       0.06250000       0.00000000 </v>
   <v>       0.50000000      -0.43750000       0.00000000 </v>
   <v>      -0.06250000       0.50000000       0.00000000 </v>
   <v>      -0.31250000       0.06250000       0.00000000 </v>
   <v>      -0.37500000      -0.31250000       0.00000000 </v>
   <v>      -0.06250000      -0.37500000       0.00000000 </v>
   <v>      -0.18750000       0.06250000       0.00000000 </v>
   <v>      -0.25000000      -0.18750000       0.00000000 </v>
   <v>      -0.06250000      -0.25000000       0.00000000 </v>
   <v>      -0.06250000       0.06250000       0.00000000 </v>
   <v>      -0.12500000      -0.06250000       0.00000000 </v>
   <v>       0.18750000       0.18750000       0.00000000 </v>
   <v>       0.00000000       0.18750000       0.00000000 </v>
   <v>       0.31250000       0.18750000       0.00000000 </v>
   <v>       0.12500000       0.31250000       0.00000000 </v>
   <v>      -0.18750000       0.12500000       0.00000000 </v>
   <v>       0.43750000       0.18750000       0.00000000 </v>
   <v>       0.25000000       0.43750000       0.00000000 </v>
   <v>      -0.18750000       0.25000000       0.00000000 </v>
   <v>      -0.43750000       0.18750000       0.00000000 </v>
   <v>       0.37500000      -0.43750000       0.00000000 </v>
   <v>      -0.18750000       0.37500000       0.00000000 </v>
   <v>      -0.31250000       0.18750000       0.00000000 </v>
   <v>       0.50000000      -0.31250000       0.00000000 </v>
   <v>      -0.18750000       0.50000000       0.00000000 </v>
   <v>      -0.18750000       0.18750000       0.00000000 </v>
   <v>      -0.37500000      -0.18750000       0.00000000 </v>
   <v>       0.31250000       0.31250000       0.00000000 </v>
   <v>       0.00000000       0.31250000       0.00000000 </v>
   <v>       0.43750000       0.31250000       0.00000000 </v>
   <v>       0.12500000       0.43750000       0.00000000 </v>
   <v>      -0.31250000       0.12500000       0.00000000 </v>
   <v>      -0.43750000       0.31250000       0.00000000 </v>
   <v>       0.25000000      -0.43750000       0.00000000 </v>
   <v>      -0.31250000       0.25000000       0.00000000 </v>
   <v>      -0.31250000       0.31250000       0.00000000 </v>
   <v>       0.37500000      -0.31250000       0.00000000 </v>
   <v>       0.43750000       0.43750000       0.00000000 </v>
   <v>       0.00000000       0.43750000       0.00000000 </v>
   <v>      -0.43750000       0.43750000       0.00000000 </v>
   <v>       0.12500000      -0.43750000       0.00000000 </v>
  </varray>
  <varray name="weights" >
   <v>       0.01041667 </v>
   <v>       0.02083333 </v>
   <v>       0.02083333 </v>
   <v>       0.02083333 </v>
   <v>       0.02083333 </v>
   <v>       0.02083333 </v>
   <v>       0.02083333 </v>
   <v>       0.02083333 </v>
   <v>       0.02083333 </v>
   <v>       0.02083333 </v>
   <v>       0.02083333 </v>
   <v>       0.02083333 </v>
   <v>       0.02083333 </v>
   <v>       0.02083333 </v>
   <v>       0.02083333 </v>
   <v>       0.02083333 </v>
   <v>       0.02083333 </v>
   <v>       0.02083333 </v>
   <v>       0.02083333 </v>
   <v>       0.02083333 </v>
   <v>       0.01041667 </v>
   <v>       0.02083333 </v>
   <v>       0.01041667 </v>
   <v>       0.02083333 </v>
   <v>       0.02083333 </v>
   <v>       0.02083333 </v>
   <v>       0.02083333 </v>
   <v>       0.02083333 </v>
   <v>       0.02083333 </v>
   <v>       0.02083333 </v>
   <v>       0.02083333 </v>
   <v>       0.02083333 </v>
   <v>       0.02083333 </v>
   <v>       0.02083333 </v>
   <v>       0.02083333 </v>
   <v>       0.02083333 </v>
   <v>       0.01041667 </v>
   <v>       0.02083333 </v>
   <v>       0.01041667 </v>
   <v>       0.02083333 </v>
   <v>       0.02083333 </v>
   <v>       0.02083333 </v>
   <v>       0.02083333 </v>
   <v>       0.02083333 </v>
   <v>       0.02083333 </v>
   <v>       0.02083333 </v>
   <v>       0.01041667 </v>
   <v>       0.02083333 </v>
   <v>       0.01041667 </v>
   <v>       0.02083333 </v>
   <v>       0.01041667 </v>
   <v>       0.02083333 </v>
  </varray>
 </kpoints>
 <parameters>
  <separator name="general" >
   <i type="string" name="SYSTEM">unknown system</i>
   <i type="logical" name="LCOMPAT"> F  </i>
  </separator>
  <separator name="electronic" >
   <i type="string" name="PREC">normal</i>
   <i name="ENMAX">    350.00000000</i>
   <i name="ENAUG">    400.00000000</i>
   <i name="EDIFF">      0.00001000</i>
   <i type="int" name="IALGO">    38</i>
   <i type="int" name="IWAVPR">    10</i>
   <i type="int" name="NBANDS">    96</i>
   <i name="NELECT">    161.00000000</i>
   <i type="int" name="TURBO">     0</i>
   <i type="int" name="IRESTART">     0</i>
   <i type="int" name="NREBOOT">     0</i>
   <i type="int" name="NMIN">     0</i>
   <i name="EREF">      0.00000000</i>
   <separator name="electronic smearing" >
    <i type="int" name="ISMEAR">     1</i>
    <i name="SIGMA">      0.20000000</i>
    <i name="KSPACING">      0.50000000</i>
    <i type="logical" name="KGAMMA"> T  </i>
   </separator>
   <separator name="electronic projectors" >
    <i type="logical" name="LREAL"> F  </i>
    <v name="ROPT">      0.00000000      0.00000000      0.00000000      0.00000000</v>
    <i type="int" name="LMAXPAW">  -100</i>
    <i type="int" name="LMAXMIX">     2</i>
    <i type="logical" name="NLSPLINE"> F  </i>
   </separator>
   <separator name="electronic startup" >
    <i type="int" name="ISTART">     0</i>
    <i type="int" name="ICHARG">     2</i>
    <i type="int" name="INIWAV">     1</i>
   </separator>
   <separator name="electronic spin" >
    <i type="int" name="ISPIN">     1</i>
    <i type="logical" name="LNONCOLLINEAR"> F  </i>
    <v name="MAGMOM">      1.00000000      1.00000000      1.00000000      1.00000000      1.00000000      1.00000000      1.00000000      1.00000000      1.00000000      1.00000000      1.00000000      1.00000000      1.00000000      1.00000000      1.00000000      1.00000000      1.00000000</v>
    <i name="NUPDOWN">     -1.00000000</i>
    <i type="logical" name="LSORBIT"> F  </i>
    <v name="SAXIS">      0.00000000      0.00000000      1.00000000</v>
    <i type="logical" name="LSPIRAL"> F  </i>
    <v name="QSPIRAL">      0.00000000      0.00000000      0.00000000</v>
    <i type="logical" name="LZEROZ"> F  </i>
   </separator>
   <separator name="electronic exchange-correlation" >
    <i type="logical" name="LASPH"> F  </i>
    <i type="logical" name="LMETAGGA"> F  </i>
   </separator>
   <separator name="electronic convergence" >
    <i type="int" name="NELM">    60</i>
    <i type="int" name="NELMDL">    -5</i>
    <i type="int" name="NELMIN">     2</i>
    <i name="ENINI">    350.00000000</i>
    <separator name="electronic convergence detail" >
     <i type="logical" name="LDIAG"> T  </i>
     <i type="logical" name="LSUBROT"> F  </i>
     <i name="WEIMIN">      0.00000000</i>
     <i name="EBREAK">      0.00000003</i>
     <i name="DEPER">      0.30000000</i>
     <i type="int" name="NRMM">     4</i>
     <i name="TIME">      0.40000000</i>
    </separator>
   </separator>
   <separator name="electronic mixer" >
    <i name="AMIX">      0.40000000</i>
    <i name="BMIX">      1.00000000</i>
    <i name="AMIN">      0.10000000</i>
    <i name="AMIX_MAG">      1.60000000</i>
    <i name="BMIX_MAG">      1.00000000</i>
    <separator name="electronic mixer details" >
     <i type="int" name="IMIX">     4</i>
     <i type="logical" name="MIXFIRST"> F  </i>
     <i type="int" name="MAXMIX">   -45</i>
     <i name="WC">    100.00000000</i>
     <i type="int" name="INIMIX">     1</i>
     <i type="int" name="MIXPRE">     1</i>
     <i type="int" name="MREMOVE">     5</i>
    </separator>
   </separator>
   <separator name="electronic dipolcorrection" >
    <i type="logical" name="LDIPOL"> F  </i>
    <i type="logical" name="LMONO"> F  </i>
    <i type="int" name="IDIPOL">     3</i>
    <i name="EPSILON">      1.00000000</i>
    <v name="DIPOL">   -100.00000000   -100.00000000   -100.00000000</v>
    <i name="EFIELD">      0.00000000</i>
   </separator>
  </separator>
  <separator name="grids" >
   <i type="int" name="NGX">    28</i>
   <i type="int" name="NGY">    28</i>
   <i type="int" name="NGZ">   144</i>
   <i type="int" name="NGXF">    56</i>
   <i type="int" name="NGYF">    56</i>
   <i type="int" name="NGZF">   288</i>
   <i type="logical" name="ADDGRID"> F  </i>
  </separator>
  <separator name="ionic" >
   <i type="int" name="NSW">     0</i>
   <i type="int" name="IBRION">    -1</i>
   <i type="int" name="MDALGO">     0</i>
   <i type="int" name="ISIF">     2</i>
   <i name="PSTRESS">      0.00000000</i>
   <i name="EDIFFG">     -0.05000000</i>
   <i type="int" name="NFREE">     1</i>
   <i name="POTIM">      0.50000000</i>
   <i name="SMASS">     -3.00000000</i>
   <i name="SCALEE">      1.00000000</i>
  </separator>
  <separator name="ionic md" >
   <i name="TEBEG">      0.00010000</i>
   <i name="TEEND">      0.00010000</i>
   <i type="int" name="NBLOCK">     1</i>
   <i type="int" name="KBLOCK">     1</i>
   <i type="int" name="NPACO">   256</i>
   <i name="APACO">     16.00000000</i>
  </separator>
  <separator name="symmetry" >
   <i type="int" name="ISYM">     2</i>
   <i name="SYMPREC">      0.00001000</i>
  </separator>
  <separator name="dos" >
   <i type="int" name="LORBIT">     0</i>
   <v name="RWIGS">     -1.00000000     -1.00000000     -1.00000000     -1.00000000</v>
   <i type="int" name="NEDOS">   301</i>
   <i name="EMIN">     10.00000000</i>
   <i name="EMAX">    -10.00000000</i>
   <i name="EFERMI">      0.00000000</i>
  </separator>
  <separator name="writing" >
   <i type="int" name="NWRITE">     2</i>
   <i type="logical" name="LWAVE"> F  </i>
   <i type="logical" name="LDOWNSAMPLE"> F  </i>
   <i type="logical" name="LCHARG"> F  </i>
   <i type="logical" name="LPARD"> F  </i>
   <i type="logical" name="LVTOT"> F  </i>
   <i type="logical" name="LVHAR"> F  </i>
   <i type="logical" name="LELF"> F  </i>
   <i type="logical" name="LOPTICS"> F  </i>
   <v name="STM">      0.00000000      0.00000000      0.00000000      0.00000000      0.00000000      0.00000000      0.00000000</v>
  </separator>
  <separator name="performance" >
   <i type="int" name="NPAR">    24</i>
   <i type="int" name="NSIM">     4</i>
   <i type="int" name="NBLK">    -1</i>
   <i type="logical" name="LPLANE"> T  </i>
   <i type="logical" name="LSCALAPACK"> T  </i>
   <i type="logical" name="LSCAAWARE"> F  </i>
   <i type="logical" name="LSCALU"> F  </i>
   <i type="logical" name="LASYNC"> F  </i>
   <i type="logical" name="LORBITALREAL"> F  </i>
  </separator>
  <separator name="miscellaneous" >
   <i type="int" name="IDIOT">     3</i>
   <i type="int" name="ISPECIAL">     0</i>
   <i type="logical" name="LMUSIC"> F  </i>
   <v name="POMASS">    196.96600000    195.08000000    192.22000000      1.00000000</v>
   <v name="DARWINR">      0.00000000      0.00000000      0.00000000      0.00000000</v>
   <v name="DARWINV">      1.00000000      1.00000000      1.00000000      1.00000000</v>
   <i type="logical" name="LCORR"> T  </i>
  </separator>
  <i type="logical" name="GGA_COMPAT"> T  </i>
  <i type="logical" name="LBERRY"> F  </i>
  <i type="int" name="ICORELEVEL">     0</i>
  <i type="logical" name="LDAU"> F  </i>
  <i type="int" name="I_CONSTRAINED_M">     0</i>
  <separator name="electronic exchange-correlation" >
   <i type="string" name="GGA">PE</i>
   <i type="int" name="VOSKOWN">     0</i>
   <i type="logical" name="LHFCALC"> F  </i>
   <i type="string" name="PRECFOCK"></i>
   <i type="logical" name="LSYMGRAD"> F  </i>
   <i type="logical" name="LHFONE"> F  </i>
   <i type="logical" name="LRHFCALC"> F  </i>
   <i type="logical" name="LTHOMAS"> F  </i>
   <i type="logical" name="LMODELHF"> F  </i>
   <i name="ENCUT4O">     -1.00000000</i>
   <i type="int" name="EXXOEP">     0</i>
   <i type="int" name="FOURORBIT">     0</i>
   <i name="AEXX">      0.00000000</i>
   <i name="HFALPHA">      0.00000000</i>
   <i name="MCALPHA">      0.00000000</i>
   <i name="ALDAX">      1.00000000</i>
   <i name="AGGAX">      1.00000000</i>
   <i name="ALDAC">      1.00000000</i>
   <i name="AGGAC">      1.00000000</i>
   <i type="int" name="NKREDX">     1</i>
   <i type="int" name="NKREDY">     1</i>
   <i type="int" name="NKREDZ">     1</i>
   <i type="logical" name="SHIFTRED"> F  </i>
   <i type="logical" name="ODDONLY"> F  </i>
   <i type="logical" name="EVENONLY"> F  </i>
   <i type="int" name="LMAXFOCK">     0</i>
   <i type="int" name="NMAXFOCKAE">     0</i>
   <i type="logical" name="LFOCKAEDFT"> F  </i>
   <i name="HFSCREEN">      0.00000000</i>
   <i name="HFSCREENC">      0.00000000</i>
   <i type="int" name="NBANDSGWLOW">     0</i>
  </separator>
  <separator name="vdW DFT" >
   <i type="logical" name="LUSE_VDW"> F  </i>
   <i name="Zab_VDW">     -0.84910000</i>
   <i name="PARAM1">      0.12340000</i>
   <i name="PARAM2">      1.00000000</i>
   <i name="PARAM3">      0.00000000</i>
  </separator>
  <separator name="model GW" >
   <i type="int" name="MODEL_GW">     0</i>
   <i name="MODEL_EPS0">     29.08686379</i>
   <i name="MODEL_ALPHA">      1.00000000</i>
  </separator>
  <separator name="linear response parameters" >
   <i type="logical" name="LEPSILON"> F  </i>
   <i type="logical" name="LRPA"> F  </i>
   <i type="logical" name="LNABLA"> F  </i>
   <i type="logical" name="LVEL"> F  </i>
   <i type="int" name="KINTER">     0</i>
   <i name="CSHIFT">      0.10000000</i>
   <i name="OMEGAMAX">     -1.00000000</i>
   <i name="DEG_THRESHOLD">      0.00200000</i>
   <i name="RTIME">     -0.10000000</i>
   <i name="WPLASMAI">      0.00000000</i>
   <v name="DFIELD">      0.00000000      0.00000000      0.00000000</v>
   <v name="WPLASMA">      0.00000000      0.00000000      0.00000000      0.00000000      0.00000000      0.00000000      0.00000000      0.00000000      0.00000000</v>
  </separator>
  <separator name="orbital magnetization" >
   <i type="logical" name="NUCIND"> F  </i>
   <v name="MAGPOS">      0.00000000      0.00000000      0.00000000</v>
   <i type="logical" name="LNICSALL"> T  </i>
   <i type="logical" name="ORBITALMAG"> F  </i>
   <i type="logical" name="LMAGBLOCH"> F  </i>
   <i type="logical" name="LCHIMAG"> F  </i>
   <i type="logical" name="LGAUGE"> T  </i>
   <i type="int" name="MAGATOM">     0</i>
   <v name="MAGDIPOL">      0.00000000      0.00000000      0.00000000</v>
   <v name="AVECCONST">      0.00000000      0.00000000      0.00000000</v>
  </separator>
  <separator name="response functions" >
   <i type="logical" name="LADDER"> F  </i>
   <i type="logical" name="LRPAFORCE"> F  </i>
   <i type="logical" name="LFXC"> F  </i>
   <i type="logical" name="LHARTREE"> T  </i>
   <i type="int" name="IBSE">     0</i>
   <v type="int" name="KPOINT">    -1     0     0     0</v>
   <i type="logical" name="LTCTE"> F  </i>
   <i type="logical" name="LTETE"> F  </i>
   <i type="logical" name="LTRIPLET"> F  </i>
   <i type="logical" name="LFXCEPS"> F  </i>
   <i type="logical" name="LFXHEG"> F  </i>
   <i type="int" name="NATURALO">     2</i>
   <i type="logical" name="L2ORDER"> F  </i>
   <i type="logical" name="LMP2LT"> F  </i>
   <i type="logical" name="LUSEW"> F  </i>
   <i name="ENCUTGW">     -2.00000000</i>
   <i name="ENCUTGWSOFT">     -2.00000000</i>
   <i name="ENCUTLF">     -1.00000000</i>
   <i type="int" name="LMAXMP2">    -1</i>
   <i name="SCISSOR">      0.00000000</i>
   <i type="int" name="NOMEGA">     0</i>
   <i type="int" name="NOMEGAR">     0</i>
   <i type="int" name="NBANDSGW">    -1</i>
   <i type="int" name="NBANDSO">    -1</i>
   <i type="int" name="NBANDSV">    -1</i>
   <i type="int" name="NELM">     1</i>
   <i type="int" name="NELMHF">     1</i>
   <i type="int" name="DIM">     3</i>
   <i type="int" name="ANTIRES">     0</i>
   <i name="OMEGAMAX">    -30.00000000</i>
   <i name="OMEGAMIN">    -30.00000000</i>
   <i name="OMEGATL">   -200.00000000</i>
   <i type="int" name="OMEGAGRID">   140</i>
   <i name="CSHIFT">     -0.10000000</i>
   <i type="logical" name="SELFENERGY"> F  </i>
   <i type="logical" name="LSPECTRAL"> F  </i>
   <i type="logical" name="LSPECTRALGW"> F  </i>
   <i type="logical" name="LSINGLES"> F  </i>
   <i type="logical" name="LFERMIGW"> F  </i>
   <i type="logical" name="ODDONLYGW"> F  </i>
   <i type="logical" name="EVENONLYGW"> F  </i>
   <i type="int" name="NKREDLFX">     1</i>
   <i type="int" name="NKREDLFY">     1</i>
   <i type="int" name="NKREDLFZ">     1</i>
   <i type="int" name="MAXMEM">  2800</i>
   <i type="int" name="TELESCOPE">     0</i>
   <i type="int" name="TAUPAR">     1</i>
   <i type="int" name="OMEGAPAR">    -1</i>
   <i name="LAMBDA">      1.00000000</i>
  </separator>
  <separator name="External order field" >
   <i name="OFIELD_KAPPA">      0.00000000</i>
   <v name="OFIELD_K">      0.00000000      0.00000000      0.00000000</v>
   <i name="OFIELD_Q6_NEAR">      0.00000000</i>
   <i name="OFIELD_Q6_FAR">      0.00000000</i>
   <i name="OFIELD_A">      0.00000000</i>
  </separator>
 </parameters>
 <atominfo>
  <atoms>      17 </atoms>
  <types>       4 </types>
  <array name="atoms" >
   <dimension dim="1">ion</dimension>
   <field type="string">element</field>
   <field type="int">atomtype</field>
   <set>
    <rc><c>Au</c><c>   1</c></rc>
    <rc><c>Pt</c><c>   2</c></rc>
    <rc><c>Pt</c><c>   2</c></rc>
    <rc><c>Pt</c><c>   2</c></rc>
    <rc><c>Pt</c><c>   2</c></rc>
    <rc><c>Pt</c><c>   2</c></rc>
    <rc><c>Pt</c><c>   2</c></rc>
    <rc><c>Pt</c><c>   2</c></rc>
    <rc><c>Pt</c><c>   2</c></rc>
    <rc><c>Pt</c><c>   2</c></rc>
    <rc><c>Pt</c><c>   2</c></rc>
    <rc><c>Pt</c><c>   2</c></rc>
    <rc><c>Pt</c><c>   2</c></rc>
    <rc><c>Pt</c><c>   2</c></rc>
    <rc><c>Pt</c><c>   2</c></rc>
    <rc><c>Ir</c><c>   3</c></rc>
    <rc><c>H </c><c>   4</c></rc>
   </set>
  </array>
  <array name="atomtypes" >
   <dimension dim="1">type</dimension>
   <field type="int">atomspertype</field>
   <field type="string">element</field>
   <field>mass</field>
   <field>valence</field>
   <field type="string">pseudopotential</field>
   <set>
    <rc><c>   1</c><c>Au</c><c>    196.96600000</c><c>     11.00000000</c><c>  PAW_PBE Au 04Oct2007                  </c></rc>
    <rc><c>  14</c><c>Pt</c><c>    195.08000000</c><c>     10.00000000</c><c>  PAW_PBE Pt 04Feb2005                  </c></rc>
    <rc><c>   1</c><c>Ir</c><c>    192.22000000</c><c>      9.00000000</c><c>  PAW_PBE Ir 06Sep2000                  </c></rc>
    <rc><c>   1</c><c>H </c><c>      1.00000000</c><c>      1.00000000</c><c>  PAW_PBE H 15Jun2001                   </c></rc>
   </set>
  </array>
 </atominfo>
 <structure name="initialpos" >
  <crystal>
   <varray name="basis" >
    <v>       5.55785930       0.00000000       0.00000000 </v>
    <v>       2.77892965       4.81324734       0.00000000 </v>
    <v>       0.00000000       0.00000000      30.80695967 </v>
   </varray>
   <i name="volume">    824.12780743 </i>
   <varray name="rec_basis" >
    <v>       0.17992539      -0.10387997       0.00000000 </v>
    <v>       0.00000000       0.20775994       0.00000000 </v>
    <v>       0.00000000       0.00000000       0.03246020 </v>
   </varray>
  </crystal>
  <varray name="positions" >
   <v>       0.00000000       0.00000000       0.38952237 </v>
   <v>       0.50000000       0.00000000       0.38952237 </v>
   <v>       0.00000000       0.50000000       0.38952237 </v>
   <v>       0.50000000       0.50000000       0.38952237 </v>
   <v>       0.16652883       0.16652883       0.46542487 </v>
   <v>       0.66694234       0.16652883       0.46542487 </v>
   <v>       0.16652883       0.66694234       0.46542487 </v>
   <v>       0.66666667       0.66666667       0.46426737 </v>
   <v>       0.83396869       0.33206261       0.54005199 </v>
   <v>       0.33333333       0.33333333       0.53994492 </v>
   <v>       0.83396869       0.83396869       0.54005199 </v>
   <v>       0.33206261       0.83396869       0.54005199 </v>
   <v>       0.00000000       0.00000000       0.61904352 </v>
   <v>       0.50048728       0.99902544       0.61498914 </v>
   <v>       0.99902544       0.50048728       0.61498914 </v>
   <v>       0.50048728       0.50048728       0.61498914 </v>
   <v>       0.00000000       0.00000000       0.66953436 </v>
  </varray>
  <varray name="selective"  type="logical" >
   <v type="logical" >  F  F  F </v>
   <v type="logical" >  F  F  F </v>
   <v type="logical" >  F  F  F </v>
   <v type="logical" >  F  F  F </v>
   <v type="logical" >  T  T  T </v>
   <v type="logical" >  T  T  T </v>
   <v type="logical" >  T  T  T </v>
   <v type="logical" >  T  T  T </v>
   <v type="logical" >  T  T  T </v>
   <v type="logical" >  T  T  T </v>
   <v type="logical" >  T  T  T </v>
   <v type="logical" >  T  T  T </v>
   <v type="logical" >  T  T  T </v>
   <v type="logical" >  T  T  T </v>
   <v type="logical" >  T  T  T </v>
   <v type="logical" >  T  T  T </v>
   <v type="logical" >  T  T  T </v>
  </varray>
  <nose>
   <v>      -3.00000000       0.00000000       0.00010000       0.00010000 </v>
  </nose>
 </structure>
 <calculation>
  <scstep>
   <time name="dav">   11.60   11.61</time>
   <time name="total">   11.63   11.65</time>
   <energy>
    <i name="alphaZ">    305.89839443 </i>
    <i name="ewald">  98561.50198767 </i>
    <i name="hartreedc">-110648.80879051 </i>
    <i name="XCdc">     48.78669774 </i>
    <i name="pawpsdc">  11173.35063782 </i>
    <i name="pawaedc"> -10713.98924482 </i>
    <i name="eentropy">     -0.00789121 </i>
    <i name="bandstr">    547.84047179 </i>
    <i name="atom">  11706.16234457 </i>
    <i name="e_fr_energy">    980.73460747 </i>
    <i name="e_wo_entrp">    980.74249868 </i>
    <i name="e_0_energy">    980.73723787 </i>
   </energy>
  </scstep>
  <scstep>
   <time name="dav">   15.65   15.66</time>
   <time name="total">   15.65   15.66</time>
   <energy>
    <i name="e_fr_energy">    -41.89350732 </i>
    <i name="e_wo_entrp">    -41.88611545 </i>
    <i name="e_0_energy">    -41.89104336 </i>
   </energy>
  </scstep>
  <scstep>
   <time name="dav">   13.88   13.89</time>
   <time name="total">   13.88   13.90</time>
   <energy>
    <i name="e_fr_energy">   -101.25544016 </i>
    <i name="e_wo_entrp">   -101.24018152 </i>
    <i name="e_0_energy">   -101.25035394 </i>
   </energy>
  </scstep>
  <scstep>
   <time name="dav">   15.67   15.67</time>
   <time name="total">   15.67   15.67</time>
   <energy>
    <i name="e_fr_energy">   -102.55583495 </i>
    <i name="e_wo_entrp">   -102.54043047 </i>
    <i name="e_0_energy">   -102.55070013 </i>
   </energy>
  </scstep>
  <scstep>
   <time name="dav">   16.23   16.24</time>
   <time name="total">   16.58   16.58</time>
   <energy>
    <i name="e_fr_energy">   -102.58527875 </i>
    <i name="e_wo_entrp">   -102.56989023 </i>
    <i name="e_0_energy">   -102.58014924 </i>
   </energy>
  </scstep>
  <scstep>
   <time name="dav">   13.50   13.51</time>
   <time name="total">   13.87   13.88</time>
   <energy>
    <i name="e_fr_energy">    -98.38378835 </i>
    <i name="e_wo_entrp">    -98.34477912 </i>
    <i name="e_0_energy">    -98.37078527 </i>
   </energy>
  </scstep>
  <scstep>
   <time name="dav">   15.90   15.91</time>
   <time name="total">   16.27   16.28</time>
   <energy>
    <i name="e_fr_energy">   -133.25325490 </i>
    <i name="e_wo_entrp">   -133.25389589 </i>
    <i name="e_0_energy">   -133.25346856 </i>
   </energy>
  </scstep>
  <scstep>
   <time name="dav">   15.92   15.92</time>
   <time name="total">   16.28   16.28</time>
   <energy>
    <i name="e_fr_energy">   -116.49751536 </i>
    <i name="e_wo_entrp">   -116.50171229 </i>
    <i name="e_0_energy">   -116.49891434 </i>
   </energy>
  </scstep>
  <scstep>
   <time name="dav">   15.97   15.97</time>
   <time name="total">   16.34   16.34</time>
   <energy>
    <i name="e_fr_energy">   -107.35650875 </i>
    <i name="e_wo_entrp">   -107.34118432 </i>
    <i name="e_0_energy">   -107.35140061 </i>
   </energy>
  </scstep>
  <scstep>
   <time name="dav">   14.68   14.68</time>
   <time name="total">   15.05   15.05</time>
   <energy>
    <i name="e_fr_energy">   -102.93290146 </i>
    <i name="e_wo_entrp">   -102.89535652 </i>
    <i name="e_0_energy">   -102.92038648 </i>
   </energy>
  </scstep>
  <scstep>
   <time name="dav">   16.07   16.07</time>
   <time name="total">   16.44   16.45</time>
   <energy>
    <i name="e_fr_energy">    -96.91499472 </i>
    <i name="e_wo_entrp">    -96.89597466 </i>
    <i name="e_0_energy">    -96.90865470 </i>
   </energy>
  </scstep>
  <scstep>
   <time name="dav">   16.77   16.78</time>
   <time name="total">   17.14   17.15</time>
   <energy>
    <i name="e_fr_energy">    -96.14789429 </i>
    <i name="e_wo_entrp">    -96.12349822 </i>
    <i name="e_0_energy">    -96.13976227 </i>
   </energy>
  </scstep>
  <scstep>
   <time name="dav">   14.50   14.50</time>
   <time name="total">   14.87   14.87</time>
   <energy>
    <i name="e_fr_energy">    -95.92560741 </i>
    <i name="e_wo_entrp">    -95.89832455 </i>
    <i name="e_0_energy">    -95.91651312 </i>
   </energy>
  </scstep>
  <scstep>
   <time name="dav">   15.18   15.18</time>
   <time name="total">   15.55   15.55</time>
   <energy>
    <i name="e_fr_energy">    -96.04203289 </i>
    <i name="e_wo_entrp">    -96.01877991 </i>
    <i name="e_0_energy">    -96.03428190 </i>
   </energy>
  </scstep>
  <scstep>
   <time name="dav">   14.83   14.83</time>
   <time name="total">   15.20   15.21</time>
   <energy>
    <i name="e_fr_energy">    -95.91020728 </i>
    <i name="e_wo_entrp">    -95.88593859 </i>
    <i name="e_0_energy">    -95.90211772 </i>
   </energy>
  </scstep>
  <scstep>
   <time name="dav">   14.44   14.45</time>
   <time name="total">   14.81   14.82</time>
   <energy>
    <i name="e_fr_energy">    -95.91219218 </i>
    <i name="e_wo_entrp">    -95.88704945 </i>
    <i name="e_0_energy">    -95.90381127 </i>
   </energy>
  </scstep>
  <scstep>
   <time name="dav">   13.88   13.88</time>
   <time name="total">   14.25   14.25</time>
   <energy>
    <i name="e_fr_energy">    -95.90190957 </i>
    <i name="e_wo_entrp">    -95.87961916 </i>
    <i name="e_0_energy">    -95.89447943 </i>
   </energy>
  </scstep>
  <scstep>
   <time name="dav">   14.76   14.76</time>
   <time name="total">   15.13   15.13</time>
   <energy>
    <i name="e_fr_energy">    -95.89092774 </i>
    <i name="e_wo_entrp">    -95.86555868 </i>
    <i name="e_0_energy">    -95.88247138 </i>
   </energy>
  </scstep>
  <scstep>
   <time name="dav">   13.84   13.84</time>
   <time name="total">   14.21   14.21</time>
   <energy>
    <i name="e_fr_energy">    -95.88981719 </i>
    <i name="e_wo_entrp">    -95.86569071 </i>
    <i name="e_0_energy">    -95.88177503 </i>
   </energy>
  </scstep>
  <scstep>
   <time name="dav">   14.96   14.96</time>
   <time name="total">   15.33   15.34</time>
   <energy>
    <i name="e_fr_energy">    -95.88889589 </i>
    <i name="e_wo_entrp">    -95.86431704 </i>
    <i name="e_0_energy">    -95.88070294 </i>
   </energy>
  </scstep>
  <scstep>
   <time name="dav">   14.07   14.08</time>
   <time name="total">   14.45   14.46</time>
   <energy>
    <i name="e_fr_energy">    -95.88823713 </i>
    <i name="e_wo_entrp">    -95.86372354 </i>
    <i name="e_0_energy">    -95.88006593 </i>
   </energy>
  </scstep>
  <scstep>
   <time name="dav">   14.15   14.15</time>
   <time name="total">   14.52   14.53</time>
   <energy>
    <i name="e_fr_energy">    -95.88764016 </i>
    <i name="e_wo_entrp">    -95.86286247 </i>
    <i name="e_0_energy">    -95.87938093 </i>
   </energy>
  </scstep>
  <scstep>
   <time name="dav">   14.60   14.60</time>
   <time name="total">   14.97   14.97</time>
   <energy>
    <i name="e_fr_energy">    -95.88749347 </i>
    <i name="e_wo_entrp">    -95.86246106 </i>
    <i name="e_0_energy">    -95.87914933 </i>
   </energy>
  </scstep>
  <scstep>
   <time name="dav">   12.81   12.81</time>
   <time name="total">   13.19   13.19</time>
   <energy>
    <i name="e_fr_energy">    -95.88750055 </i>
    <i name="e_wo_entrp">    -95.86249803 </i>
    <i name="e_0_energy">    -95.87916638 </i>
   </energy>
  </scstep>
  <scstep>
   <time name="dav">   10.59   10.59</time>
   <time name="total">   10.96   10.96</time>
   <energy>
    <i name="e_fr_energy">    -95.88752620 </i>
    <i name="e_wo_entrp">    -95.86259423 </i>
    <i name="e_0_energy">    -95.87921555 </i>
   </energy>
  </scstep>
  <scstep>
   <time name="dav">    9.86    9.86</time>
   <time name="total">   10.24   10.24</time>
   <energy>
    <i name="e_fr_energy">    -95.88756850 </i>
    <i name="e_wo_entrp">    -95.86264272 </i>
    <i name="e_0_energy">    -95.87925991 </i>
   </energy>
  </scstep>
  <scstep>
   <time name="dav">   10.20   10.20</time>
   <time name="total">   10.58   10.58</time>
   <energy>
    <i name="e_fr_energy">    -95.88762403 </i>
    <i name="e_wo_entrp">    -95.86273334 </i>
    <i name="e_0_energy">    -95.87932713 </i>
   </energy>
  </scstep>
  <scstep>
   <time name="dav">    9.97    9.97</time>
   <time name="total">   10.35   10.35</time>
   <energy>
    <i name="e_fr_energy">    -95.88767611 </i>
    <i name="e_wo_entrp">    -95.86279552 </i>
    <i name="e_0_energy">    -95.87938258 </i>
   </energy>
  </scstep>
  <scstep>
   <time name="dav">    9.88    9.88</time>
   <time name="total">   10.26   10.26</time>
   <energy>
    <i name="e_fr_energy">    -95.88771158 </i>
    <i name="e_wo_entrp">    -95.86280194 </i>
    <i name="e_0_energy">    -95.87940837 </i>
   </energy>
  </scstep>
  <scstep>
   <time name="dav">   10.06   10.06</time>
   <time name="total">   10.43   10.43</time>
   <energy>
    <i name="e_fr_energy">    -95.88781425 </i>
    <i name="e_wo_entrp">    -95.86293009 </i>
    <i name="e_0_energy">    -95.87951953 </i>
   </energy>
  </scstep>
  <scstep>
   <time name="dav">   10.29   10.29</time>
   <time name="total">   10.66   10.67</time>
   <energy>
    <i name="e_fr_energy">    -95.88784646 </i>
    <i name="e_wo_entrp">    -95.86295364 </i>
    <i name="e_0_energy">    -95.87954885 </i>
   </energy>
  </scstep>
  <scstep>
   <time name="dav">   10.02   10.02</time>
   <time name="total">   10.39   10.40</time>
   <energy>
    <i name="e_fr_energy">    -95.88787708 </i>
    <i name="e_wo_entrp">    -95.86296642 </i>
    <i name="e_0_energy">    -95.87957353 </i>
   </energy>
  </scstep>
  <scstep>
   <time name="dav">    9.94    9.94</time>
   <time name="total">   10.31   10.31</time>
   <energy>
    <i name="e_fr_energy">    -95.88789034 </i>
    <i name="e_wo_entrp">    -95.86298775 </i>
    <i name="e_0_energy">    -95.87958948 </i>
   </energy>
  </scstep>
  <scstep>
   <time name="dav">    9.34    9.34</time>
   <time name="total">    9.71    9.72</time>
   <energy>
    <i name="e_fr_energy">    -95.88790054 </i>
    <i name="e_wo_entrp">    -95.86299533 </i>
    <i name="e_0_energy">    -95.87959881 </i>
   </energy>
  </scstep>
  <scstep>
   <time name="dav">    9.51    9.51</time>
   <time name="total">    9.53    9.54</time>
   <energy>
    <i name="alphaZ">    305.89839443 </i>
    <i name="ewald">  98561.50198767 </i>
    <i name="hartreedc">-110496.27158899 </i>
    <i name="XCdc">     43.36317820 </i>
    <i name="pawpsdc">  14212.37939796 </i>
    <i name="pawaedc"> -13797.97264419 </i>
    <i name="eentropy">     -0.02490686 </i>
    <i name="bandstr">   -630.92407120 </i>
    <i name="atom">  11706.16234457 </i>
    <i name="e_fr_energy">    -95.88790840 </i>
    <i name="e_wo_entrp">    -95.86300154 </i>
    <i name="e_0_energy">    -95.87960611 </i>
   </energy>
  </scstep>
  <dipole>
   <v name="dipole">      0.00000000       0.00000000      -0.04362594 </v>
   <i name="Tr[quadrupol]">   -934.61112463 </i>
   <i name="Echarged">      0.00000000 </i>
   <i name="Edipol_quadrupol">      0.00000000 </i>
   <i name="Eion">      0.00000000 </i>
  </dipole>
  <structure>
   <crystal>
    <varray name="basis" >
     <v>       5.55785930       0.00000000       0.00000000 </v>
     <v>       2.77892965       4.81324734       0.00000000 </v>
     <v>       0.00000000       0.00000000      30.80695967 </v>
    </varray>
    <i name="volume">    824.12780743 </i>
    <varray name="rec_basis" >
     <v>       0.17992539      -0.10387997       0.00000000 </v>
     <v>       0.00000000       0.20775994       0.00000000 </v>
     <v>       0.00000000       0.00000000       0.03246020 </v>
    </varray>
   </crystal>
   <varray name="positions" >
    <v>       0.00000000       0.00000000       0.38952237 </v>
    <v>       0.50000000       0.00000000       0.38952237 </v>
    <v>       0.00000000       0.50000000       0.38952237 </v>
    <v>       0.50000000       0.50000000       0.38952237 </v>
    <v>       0.16652883       0.16652883       0.46542487 </v>
    <v>       0.66694234       0.16652883       0.46542487 </v>
    <v>       0.16652883       0.66694234       0.46542487 </v>
    <v>       0.66666667       0.66666667       0.46426737 </v>
    <v>       0.83396869       0.33206261       0.54005199 </v>
    <v>       0.33333333       0.33333333       0.53994492 </v>
    <v>       0.83396869       0.83396869       0.54005199 </v>
    <v>       0.33206261       0.83396869       0.54005199 </v>
    <v>       0.00000000       0.00000000       0.61904352 </v>
    <v>       0.50048728       0.99902544       0.61498914 </v>
    <v>       0.99902544       0.50048728       0.61498914 </v>
    <v>       0.50048728       0.50048728       0.61498914 </v>
    <v>       0.00000000       0.00000000       0.66953436 </v>
   </varray>
  </structure>
  <varray name="forces" >
   <v>       0.01859125       0.01073367      -1.02940586 </v>
   <v>      -0.01919020       0.12164784       0.10202794 </v>
   <v>       0.09575502      -0.07744313       0.10202794 </v>
   <v>      -0.09646432      -0.05569370       0.10134062 </v>
   <v>       0.15838828       0.09144551       0.35906183 </v>
   <v>      -0.14260232       0.07657010       0.14703054 </v>
   <v>      -0.00498950      -0.16178228       0.14703054 </v>
   <v>       0.01016254       0.00586735      -0.15124012 </v>
   <v>      -0.17210234       0.11346028       0.28827822 </v>
   <v>       0.13873585       0.08009918       0.53330360 </v>
   <v>      -0.02386493      -0.01377842      -0.06138462 </v>
   <v>       0.01220831      -0.20577514       0.28827822 </v>
   <v>       0.04655922       0.02688098       0.15493943 </v>
   <v>      -0.03244492      -0.00481671       0.11261610 </v>
   <v>      -0.02039385      -0.02568977       0.11261610 </v>
   <v>       0.03376518       0.01949433      -1.21168878 </v>
   <v>      -0.00211328      -0.00122010       0.00516830 </v>
  </varray>
  <varray name="stress" >
   <v>     -22.61116557      -0.31281986       0.03404319 </v>
   <v>      -0.31281986     -22.24995231       0.01965484 </v>
   <v>       0.03404323       0.01965487      -1.92226490 </v>
  </varray>
  <energy>
   <i name="e_fr_energy">    -95.88769946 </i>
   <i name="e_wo_entrp">    -95.87939717 </i>
   <i name="e_0_energy">     -0.02490686 </i>
  </energy>
  <time name="totalsc">  496.41  496.62</time>
  <eigenvalues>
   <array>
    <dimension dim="1">band</dimension>
    <dimension dim="2">kpoint</dimension>
    <dimension dim="3">spin</dimension>
    <field>eigene</field>
    <field>occ</field>
    <set>
     <set comment="spin 1">
      <set comment="kpoint 1">
       <r>  -10.0429    1.0000 </r>
       <r>   -8.8182    1.0000 </r>
       <r>   -7.7501    1.0000 </r>
       <r>   -7.6072    1.0000 </r>
       <r>   -7.3205    1.0000 </r>
       <r>   -7.3014    1.0000 </r>
       <r>   -7.2796    1.0000 </r>
       <r>   -7.1534    1.0000 </r>
       <r>   -7.1355    1.0000 </r>
       <r>   -7.1288    1.0000 </r>
       <r>   -6.7655    1.0000 </r>
       <r>   -6.6843    1.0000 </r>
       <r>   -6.6753    1.0000 </r>
       <r>   -6.6454    1.0000 </r>
       <r>   -6.6323    1.0000 </r>
       <r>   -6.4821    1.0000 </r>
       <r>   -6.4515    1.0000 </r>
       <r>   -6.4113    1.0000 </r>
       <r>   -6.3928    1.0000 </r>
       <r>   -5.9281    1.0000 </r>
       <r>   -5.6798    1.0000 </r>
       <r>   -5.6691    1.0000 </r>
       <r>   -5.4220    1.0000 </r>
       <r>   -4.8235    1.0000 </r>
       <r>   -4.8125    1.0000 </r>
       <r>   -4.6878    1.0000 </r>
       <r>   -4.5989    1.0000 </r>
       <r>   -4.5907    1.0000 </r>
       <r>   -4.5071    1.0000 </r>
       <r>   -4.4520    1.0000 </r>
       <r>   -4.3113    1.0000 </r>
       <r>   -4.2237    1.0000 </r>
       <r>   -4.1780    1.0000 </r>
       <r>   -4.0663    1.0000 </r>
       <r>   -4.0502    1.0000 </r>
       <r>   -3.9094    1.0000 </r>
       <r>   -3.8785    1.0000 </r>
       <r>   -3.8379    1.0000 </r>
       <r>   -3.8253    1.0000 </r>
       <r>   -3.8061    1.0000 </r>
       <r>   -3.6435    1.0000 </r>
       <r>   -3.5914    1.0000 </r>
       <r>   -3.3959    1.0000 </r>
       <r>   -3.3797    1.0000 </r>
       <r>   -3.3500    1.0000 </r>
       <r>   -3.2545    1.0000 </r>
       <r>   -3.0193    1.0000 </r>
       <r>   -2.9697    1.0000 </r>
       <r>   -2.8293    1.0000 </r>
       <r>   -2.7358    1.0000 </r>
       <r>   -2.6378    1.0000 </r>
       <r>   -2.3219    1.0000 </r>
       <r>   -2.2207    1.0000 </r>
       <r>   -2.2076    1.0000 </r>
       <r>   -2.0632    1.0000 </r>
       <r>   -2.0548    1.0000 </r>
       <r>   -1.7424    1.0000 </r>
       <r>   -1.6809    1.0000 </r>
       <r>   -1.5987    1.0000 </r>
       <r>   -1.5536    1.0000 </r>
       <r>   -1.4657    1.0000 </r>
       <r>   -1.4087    1.0000 </r>
       <r>   -1.3970    1.0000 </r>
       <r>   -1.2665    1.0002 </r>
       <r>   -1.1172    1.0046 </r>
       <r>   -1.0008    1.0241 </r>
       <r>   -0.9836    1.0280 </r>
       <r>   -0.9497    1.0342 </r>
       <r>   -0.9055    1.0327 </r>
       <r>   -0.7863    0.8726 </r>
       <r>   -0.6980    0.5534 </r>
       <r>   -0.6946    0.5389 </r>
       <r>   -0.6690    0.4307 </r>
       <r>   -0.6469    0.3402 </r>
       <r>   -0.5822    0.1212 </r>
       <r>   -0.5638    0.0764 </r>
       <r>   -0.5400    0.0310 </r>
       <r>   -0.4054   -0.0318 </r>
       <r>   -0.3980   -0.0303 </r>
       <r>   -0.3681   -0.0237 </r>
       <r>   -0.2960   -0.0094 </r>
       <r>   -0.1743   -0.0009 </r>
       <r>   -0.0683   -0.0001 </r>
       <r>   -0.0290   -0.0000 </r>
       <r>    0.0798   -0.0000 </r>
       <r>    0.1700   -0.0000 </r>
       <r>    0.4608   -0.0000 </r>
       <r>    0.4866   -0.0000 </r>
       <r>    1.2870   -0.0000 </r>
       <r>    1.4691   -0.0000 </r>
       <r>    1.7058   -0.0000 </r>
       <r>    1.7437   -0.0000 </r>
       <r>    1.7742   -0.0000 </r>
       <r>    1.8753   -0.0000 </r>
       <r>    2.4900   -0.0000 </r>
       <r>    2.6783   -0.0000 </r>
      </set>
      <set comment="kpoint 2">
       <r>  -10.0429    1.0000 </r>
       <r>   -8.8182    1.0000 </r>
       <r>   -7.7502    1.0000 </r>
       <r>   -7.6073    1.0000 </r>
       <r>   -7.3238    1.0000 </r>
       <r>   -7.2921    1.0000 </r>
       <r>   -7.2856    1.0000 </r>
       <r>   -7.1540    1.0000 </r>
       <r>   -7.1348    1.0000 </r>
       <r>   -7.1289    1.0000 </r>
       <r>   -6.7656    1.0000 </r>
       <r>   -6.6829    1.0000 </r>
       <r>   -6.6771    1.0000 </r>
       <r>   -6.6430    1.0000 </r>
       <r>   -6.6348    1.0000 </r>
       <r>   -6.4810    1.0000 </r>
       <r>   -6.4458    1.0000 </r>
       <r>   -6.4218    1.0000 </r>
       <r>   -6.3886    1.0000 </r>
       <r>   -5.9281    1.0000 </r>
       <r>   -5.6817    1.0000 </r>
       <r>   -5.6673    1.0000 </r>
       <r>   -5.4216    1.0000 </r>
       <r>   -4.8302    1.0000 </r>
       <r>   -4.8065    1.0000 </r>
       <r>   -4.6877    1.0000 </r>
       <r>   -4.5958    1.0000 </r>
       <r>   -4.5925    1.0000 </r>
       <r>   -4.5077    1.0000 </r>
       <r>   -4.4517    1.0000 </r>
       <r>   -4.3113    1.0000 </r>
       <r>   -4.2233    1.0000 </r>
       <r>   -4.1782    1.0000 </r>
       <r>   -4.0645    1.0000 </r>
       <r>   -4.0521    1.0000 </r>
       <r>   -3.9117    1.0000 </r>
       <r>   -3.8758    1.0000 </r>
       <r>   -3.8377    1.0000 </r>
       <r>   -3.8297    1.0000 </r>
       <r>   -3.8022    1.0000 </r>
       <r>   -3.6386    1.0000 </r>
       <r>   -3.5977    1.0000 </r>
       <r>   -3.3978    1.0000 </r>
       <r>   -3.3759    1.0000 </r>
       <r>   -3.3527    1.0000 </r>
       <r>   -3.2552    1.0000 </r>
       <r>   -2.9983    1.0000 </r>
       <r>   -2.9812    1.0000 </r>
       <r>   -2.8137    1.0000 </r>
       <r>   -2.7759    1.0000 </r>
       <r>   -2.6217    1.0000 </r>
       <r>   -2.3198    1.0000 </r>
       <r>   -2.2191    1.0000 </r>
       <r>   -2.2043    1.0000 </r>
       <r>   -2.0733    1.0000 </r>
       <r>   -2.0493    1.0000 </r>
       <r>   -1.7582    1.0000 </r>
       <r>   -1.6870    1.0000 </r>
       <r>   -1.5784    1.0000 </r>
       <r>   -1.5290    1.0000 </r>
       <r>   -1.4671    1.0000 </r>
       <r>   -1.4169    1.0000 </r>
       <r>   -1.3932    1.0000 </r>
       <r>   -1.3009    1.0001 </r>
       <r>   -1.1291    1.0037 </r>
       <r>   -0.9971    1.0250 </r>
       <r>   -0.9716    1.0306 </r>
       <r>   -0.9415    1.0350 </r>
       <r>   -0.8756    1.0193 </r>
       <r>   -0.8045    0.9180 </r>
       <r>   -0.7525    0.7668 </r>
       <r>   -0.6988    0.5567 </r>
       <r>   -0.6449    0.3324 </r>
       <r>   -0.6317    0.2816 </r>
       <r>   -0.5760    0.1053 </r>
       <r>   -0.5682    0.0864 </r>
       <r>   -0.5271    0.0122 </r>
       <r>   -0.4052   -0.0317 </r>
       <r>   -0.3999   -0.0307 </r>
       <r>   -0.3622   -0.0223 </r>
       <r>   -0.3217   -0.0137 </r>
       <r>   -0.1536   -0.0006 </r>
       <r>   -0.0782   -0.0001 </r>
       <r>    0.0184   -0.0000 </r>
       <r>    0.0811   -0.0000 </r>
       <r>    0.1404   -0.0000 </r>
       <r>    0.3833   -0.0000 </r>
       <r>    0.5597   -0.0000 </r>
       <r>    1.2886   -0.0000 </r>
       <r>    1.4700   -0.0000 </r>
       <r>    1.7141   -0.0000 </r>
       <r>    1.7235   -0.0000 </r>
       <r>    1.7441   -0.0000 </r>
       <r>    1.9117   -0.0000 </r>
       <r>    2.4800   -0.0000 </r>
       <r>    2.6812   -0.0000 </r>
      </set>
      <set comment="kpoint 3">
       <r>   -9.8393    1.0000 </r>
       <r>   -8.6187    1.0000 </r>
       <r>   -7.5454    1.0000 </r>
       <r>   -7.4140    1.0000 </r>
       <r>   -7.2999    1.0000 </r>
       <r>   -7.2212    1.0000 </r>
       <r>   -7.1070    1.0000 </r>
       <r>   -7.0715    1.0000 </r>
       <r>   -7.0216    1.0000 </r>
       <r>   -6.9547    1.0000 </r>
       <r>   -6.6787    1.0000 </r>
       <r>   -6.5982    1.0000 </r>
       <r>   -6.5693    1.0000 </r>
       <r>   -6.5588    1.0000 </r>
       <r>   -6.5112    1.0000 </r>
       <r>   -6.3661    1.0000 </r>
       <r>   -6.3222    1.0000 </r>
       <r>   -6.2693    1.0000 </r>
       <r>   -6.2188    1.0000 </r>
       <r>   -5.8798    1.0000 </r>
       <r>   -5.6219    1.0000 </r>
       <r>   -5.6001    1.0000 </r>
       <r>   -5.3769    1.0000 </r>
       <r>   -4.8621    1.0000 </r>
       <r>   -4.7978    1.0000 </r>
       <r>   -4.7316    1.0000 </r>
       <r>   -4.5835    1.0000 </r>
       <r>   -4.5138    1.0000 </r>
       <r>   -4.5083    1.0000 </r>
       <r>   -4.4311    1.0000 </r>
       <r>   -4.3937    1.0000 </r>
       <r>   -4.3341    1.0000 </r>
       <r>   -4.0721    1.0000 </r>
       <r>   -4.0290    1.0000 </r>
       <r>   -3.9938    1.0000 </r>
       <r>   -3.9730    1.0000 </r>
       <r>   -3.8861    1.0000 </r>
       <r>   -3.8490    1.0000 </r>
       <r>   -3.7790    1.0000 </r>
       <r>   -3.7573    1.0000 </r>
       <r>   -3.7313    1.0000 </r>
       <r>   -3.5866    1.0000 </r>
       <r>   -3.5358    1.0000 </r>
       <r>   -3.4976    1.0000 </r>
       <r>   -3.4500    1.0000 </r>
       <r>   -3.4071    1.0000 </r>
       <r>   -3.2128    1.0000 </r>
       <r>   -3.1275    1.0000 </r>
       <r>   -2.8810    1.0000 </r>
       <r>   -2.8267    1.0000 </r>
       <r>   -2.6326    1.0000 </r>
       <r>   -2.5805    1.0000 </r>
       <r>   -2.3494    1.0000 </r>
       <r>   -2.3196    1.0000 </r>
       <r>   -2.1955    1.0000 </r>
       <r>   -2.0819    1.0000 </r>
       <r>   -1.9591    1.0000 </r>
       <r>   -1.8025    1.0000 </r>
       <r>   -1.7820    1.0000 </r>
       <r>   -1.7628    1.0000 </r>
       <r>   -1.7113    1.0000 </r>
       <r>   -1.6581    1.0000 </r>
       <r>   -1.5858    1.0000 </r>
       <r>   -1.5163    1.0000 </r>
       <r>   -1.4623    1.0000 </r>
       <r>   -1.3598    1.0000 </r>
       <r>   -1.3294    1.0000 </r>
       <r>   -1.1521    1.0024 </r>
       <r>   -1.0882    1.0076 </r>
       <r>   -1.0130    1.0213 </r>
       <r>   -0.9400    1.0351 </r>
       <r>   -0.9109    1.0338 </r>
       <r>   -0.8855    1.0252 </r>
       <r>   -0.8463    0.9912 </r>
       <r>   -0.7859    0.8714 </r>
       <r>   -0.7246    0.6623 </r>
       <r>   -0.7052    0.5835 </r>
       <r>   -0.6631    0.4063 </r>
       <r>   -0.6241    0.2536 </r>
       <r>   -0.5271    0.0122 </r>
       <r>   -0.4908   -0.0221 </r>
       <r>   -0.3935   -0.0294 </r>
       <r>   -0.3514   -0.0199 </r>
       <r>   -0.2475   -0.0041 </r>
       <r>   -0.1044   -0.0002 </r>
       <r>    0.2731   -0.0000 </r>
       <r>    0.3499   -0.0000 </r>
       <r>    0.5955   -0.0000 </r>
       <r>    0.9182   -0.0000 </r>
       <r>    1.0965   -0.0000 </r>
       <r>    1.3901   -0.0000 </r>
       <r>    1.6256   -0.0000 </r>
       <r>    2.2411   -0.0000 </r>
       <r>    2.5459   -0.0000 </r>
       <r>    2.7741   -0.0000 </r>
       <r>    3.1429   -0.0000 </r>
      </set>
      <set comment="kpoint 4">
       <r>   -9.8393    1.0000 </r>
       <r>   -8.6187    1.0000 </r>
       <r>   -7.5451    1.0000 </r>
       <r>   -7.4138    1.0000 </r>
       <r>   -7.2995    1.0000 </r>
       <r>   -7.2225    1.0000 </r>
       <r>   -7.1060    1.0000 </r>
       <r>   -7.0713    1.0000 </r>
       <r>   -7.0220    1.0000 </r>
       <r>   -6.9546    1.0000 </r>
       <r>   -6.6788    1.0000 </r>
       <r>   -6.5980    1.0000 </r>
       <r>   -6.5697    1.0000 </r>
       <r>   -6.5591    1.0000 </r>
       <r>   -6.5095    1.0000 </r>
       <r>   -6.3671    1.0000 </r>
       <r>   -6.3277    1.0000 </r>
       <r>   -6.2627    1.0000 </r>
       <r>   -6.2196    1.0000 </r>
       <r>   -5.8802    1.0000 </r>
       <r>   -5.6156    1.0000 </r>
       <r>   -5.6059    1.0000 </r>
       <r>   -5.3780    1.0000 </r>
       <r>   -4.8528    1.0000 </r>
       <r>   -4.8059    1.0000 </r>
       <r>   -4.7316    1.0000 </r>
       <r>   -4.5899    1.0000 </r>
       <r>   -4.5106    1.0000 </r>
       <r>   -4.5078    1.0000 </r>
       <r>   -4.4325    1.0000 </r>
       <r>   -4.3894    1.0000 </r>
       <r>   -4.3360    1.0000 </r>
       <r>   -4.0737    1.0000 </r>
       <r>   -4.0286    1.0000 </r>
       <r>   -3.9938    1.0000 </r>
       <r>   -3.9716    1.0000 </r>
       <r>   -3.8854    1.0000 </r>
       <r>   -3.8463    1.0000 </r>
       <r>   -3.7823    1.0000 </r>
       <r>   -3.7572    1.0000 </r>
       <r>   -3.7342    1.0000 </r>
       <r>   -3.5787    1.0000 </r>
       <r>   -3.5467    1.0000 </r>
       <r>   -3.4927    1.0000 </r>
       <r>   -3.4391    1.0000 </r>
       <r>   -3.4174    1.0000 </r>
       <r>   -3.2262    1.0000 </r>
       <r>   -3.1226    1.0000 </r>
       <r>   -2.8777    1.0000 </r>
       <r>   -2.8093    1.0000 </r>
       <r>   -2.6364    1.0000 </r>
       <r>   -2.5942    1.0000 </r>
       <r>   -2.3575    1.0000 </r>
       <r>   -2.3134    1.0000 </r>
       <r>   -2.1787    1.0000 </r>
       <r>   -2.0934    1.0000 </r>
       <r>   -1.9463    1.0000 </r>
       <r>   -1.8294    1.0000 </r>
       <r>   -1.7941    1.0000 </r>
       <r>   -1.7417    1.0000 </r>
       <r>   -1.7150    1.0000 </r>
       <r>   -1.6499    1.0000 </r>
       <r>   -1.5900    1.0000 </r>
       <r>   -1.5121    1.0000 </r>
       <r>   -1.4657    1.0000 </r>
       <r>   -1.3627    1.0000 </r>
       <r>   -1.3124    1.0000 </r>
       <r>   -1.1551    1.0022 </r>
       <r>   -1.0542    1.0128 </r>
       <r>   -1.0236    1.0189 </r>
       <r>   -0.9355    1.0354 </r>
       <r>   -0.9263    1.0354 </r>
       <r>   -0.8634    1.0096 </r>
       <r>   -0.8300    0.9676 </r>
       <r>   -0.8085    0.9269 </r>
       <r>   -0.7515    0.7636 </r>
       <r>   -0.6964    0.5465 </r>
       <r>   -0.6718    0.4426 </r>
       <r>   -0.6334    0.2881 </r>
       <r>   -0.5356    0.0241 </r>
       <r>   -0.4365   -0.0354 </r>
       <r>   -0.4147   -0.0333 </r>
       <r>   -0.3454   -0.0185 </r>
       <r>   -0.3044   -0.0107 </r>
       <r>   -0.0941   -0.0001 </r>
       <r>    0.2823   -0.0000 </r>
       <r>    0.3567   -0.0000 </r>
       <r>    0.5848   -0.0000 </r>
       <r>    0.9173   -0.0000 </r>
       <r>    1.1115   -0.0000 </r>
       <r>    1.3741   -0.0000 </r>
       <r>    1.6419   -0.0000 </r>
       <r>    2.2410   -0.0000 </r>
       <r>    2.5545   -0.0000 </r>
       <r>    2.7743   -0.0000 </r>
       <r>    3.1372   -0.0000 </r>
      </set>
      <set comment="kpoint 5">
       <r>   -9.8394    1.0000 </r>
       <r>   -8.6188    1.0000 </r>
       <r>   -7.5456    1.0000 </r>
       <r>   -7.4143    1.0000 </r>
       <r>   -7.3005    1.0000 </r>
       <r>   -7.2202    1.0000 </r>
       <r>   -7.1070    1.0000 </r>
       <r>   -7.0720    1.0000 </r>
       <r>   -7.0217    1.0000 </r>
       <r>   -6.9545    1.0000 </r>
       <r>   -6.6794    1.0000 </r>
       <r>   -6.5985    1.0000 </r>
       <r>   -6.5675    1.0000 </r>
       <r>   -6.5618    1.0000 </r>
       <r>   -6.5086    1.0000 </r>
       <r>   -6.3623    1.0000 </r>
       <r>   -6.3269    1.0000 </r>
       <r>   -6.2656    1.0000 </r>
       <r>   -6.2229    1.0000 </r>
       <r>   -5.8792    1.0000 </r>
       <r>   -5.6246    1.0000 </r>
       <r>   -5.5983    1.0000 </r>
       <r>   -5.3753    1.0000 </r>
       <r>   -4.8673    1.0000 </r>
       <r>   -4.7946    1.0000 </r>
       <r>   -4.7316    1.0000 </r>
       <r>   -4.5828    1.0000 </r>
       <r>   -4.5205    1.0000 </r>
       <r>   -4.4965    1.0000 </r>
       <r>   -4.4286    1.0000 </r>
       <r>   -4.4010    1.0000 </r>
       <r>   -4.3324    1.0000 </r>
       <r>   -4.0699    1.0000 </r>
       <r>   -4.0299    1.0000 </r>
       <r>   -3.9985    1.0000 </r>
       <r>   -3.9676    1.0000 </r>
       <r>   -3.8954    1.0000 </r>
       <r>   -3.8483    1.0000 </r>
       <r>   -3.7719    1.0000 </r>
       <r>   -3.7474    1.0000 </r>
       <r>   -3.7345    1.0000 </r>
       <r>   -3.5944    1.0000 </r>
       <r>   -3.5331    1.0000 </r>
       <r>   -3.5053    1.0000 </r>
       <r>   -3.4531    1.0000 </r>
       <r>   -3.3998    1.0000 </r>
       <r>   -3.1926    1.0000 </r>
       <r>   -3.1340    1.0000 </r>
       <r>   -2.8996    1.0000 </r>
       <r>   -2.8311    1.0000 </r>
       <r>   -2.6195    1.0000 </r>
       <r>   -2.5762    1.0000 </r>
       <r>   -2.3480    1.0000 </r>
       <r>   -2.3036    1.0000 </r>
       <r>   -2.2261    1.0000 </r>
       <r>   -2.0646    1.0000 </r>
       <r>   -1.9759    1.0000 </r>
       <r>   -1.8400    1.0000 </r>
       <r>   -1.7654    1.0000 </r>
       <r>   -1.7307    1.0000 </r>
       <r>   -1.7201    1.0000 </r>
       <r>   -1.6207    1.0000 </r>
       <r>   -1.6018    1.0000 </r>
       <r>   -1.5397    1.0000 </r>
       <r>   -1.4407    1.0000 </r>
       <r>   -1.4137    1.0000 </r>
       <r>   -1.2922    1.0001 </r>
       <r>   -1.1724    1.0015 </r>
       <r>   -1.0986    1.0064 </r>
       <r>   -1.0433    1.0148 </r>
       <r>   -0.9289    1.0354 </r>
       <r>   -0.8890    1.0269 </r>
       <r>   -0.8740    1.0181 </r>
       <r>   -0.8503    0.9960 </r>
       <r>   -0.7618    0.7987 </r>
       <r>   -0.7204    0.6455 </r>
       <r>   -0.7022    0.5708 </r>
       <r>   -0.6661    0.4187 </r>
       <r>   -0.5904    0.1440 </r>
       <r>   -0.5634    0.0756 </r>
       <r>   -0.5119   -0.0053 </r>
       <r>   -0.4259   -0.0347 </r>
       <r>   -0.3146   -0.0125 </r>
       <r>   -0.2355   -0.0033 </r>
       <r>   -0.1008   -0.0001 </r>
       <r>    0.2851   -0.0000 </r>
       <r>    0.3568   -0.0000 </r>
       <r>    0.5880   -0.0000 </r>
       <r>    0.9197   -0.0000 </r>
       <r>    1.0905   -0.0000 </r>
       <r>    1.3878   -0.0000 </r>
       <r>    1.6189   -0.0000 </r>
       <r>    2.2383   -0.0000 </r>
       <r>    2.5513   -0.0000 </r>
       <r>    2.7674   -0.0000 </r>
       <r>    3.1371   -0.0000 </r>
      </set>
      <set comment="kpoint 6">
       <r>   -9.3867    1.0000 </r>
       <r>   -8.1885    1.0000 </r>
       <r>   -7.3978    1.0000 </r>
       <r>   -7.1137    1.0000 </r>
       <r>   -7.0084    1.0000 </r>
       <r>   -6.9891    1.0000 </r>
       <r>   -6.9501    1.0000 </r>
       <r>   -6.7773    1.0000 </r>
       <r>   -6.7249    1.0000 </r>
       <r>   -6.6501    1.0000 </r>
       <r>   -6.5576    1.0000 </r>
       <r>   -6.4493    1.0000 </r>
       <r>   -6.3430    1.0000 </r>
       <r>   -6.3093    1.0000 </r>
       <r>   -6.2176    1.0000 </r>
       <r>   -6.1618    1.0000 </r>
       <r>   -6.0311    1.0000 </r>
       <r>   -5.9372    1.0000 </r>
       <r>   -5.8798    1.0000 </r>
       <r>   -5.6941    1.0000 </r>
       <r>   -5.4988    1.0000 </r>
       <r>   -5.4459    1.0000 </r>
       <r>   -5.2861    1.0000 </r>
       <r>   -4.9777    1.0000 </r>
       <r>   -4.9038    1.0000 </r>
       <r>   -4.7855    1.0000 </r>
       <r>   -4.7187    1.0000 </r>
       <r>   -4.6453    1.0000 </r>
       <r>   -4.5781    1.0000 </r>
       <r>   -4.3806    1.0000 </r>
       <r>   -4.3699    1.0000 </r>
       <r>   -4.2743    1.0000 </r>
       <r>   -4.1789    1.0000 </r>
       <r>   -4.1654    1.0000 </r>
       <r>   -4.1102    1.0000 </r>
       <r>   -3.9567    1.0000 </r>
       <r>   -3.9279    1.0000 </r>
       <r>   -3.8693    1.0000 </r>
       <r>   -3.7976    1.0000 </r>
       <r>   -3.7715    1.0000 </r>
       <r>   -3.7387    1.0000 </r>
       <r>   -3.6932    1.0000 </r>
       <r>   -3.6626    1.0000 </r>
       <r>   -3.6316    1.0000 </r>
       <r>   -3.5346    1.0000 </r>
       <r>   -3.4894    1.0000 </r>
       <r>   -3.3965    1.0000 </r>
       <r>   -3.1833    1.0000 </r>
       <r>   -3.1427    1.0000 </r>
       <r>   -2.9745    1.0000 </r>
       <r>   -2.8968    1.0000 </r>
       <r>   -2.7758    1.0000 </r>
       <r>   -2.6906    1.0000 </r>
       <r>   -2.6284    1.0000 </r>
       <r>   -2.5810    1.0000 </r>
       <r>   -2.5061    1.0000 </r>
       <r>   -2.4846    1.0000 </r>
       <r>   -2.4344    1.0000 </r>
       <r>   -2.3638    1.0000 </r>
       <r>   -2.2725    1.0000 </r>
       <r>   -2.1972    1.0000 </r>
       <r>   -2.0609    1.0000 </r>
       <r>   -2.0166    1.0000 </r>
       <r>   -1.9058    1.0000 </r>
       <r>   -1.8070    1.0000 </r>
       <r>   -1.7529    1.0000 </r>
       <r>   -1.7185    1.0000 </r>
       <r>   -1.5522    1.0000 </r>
       <r>   -1.4801    1.0000 </r>
       <r>   -1.4339    1.0000 </r>
       <r>   -1.3830    1.0000 </r>
       <r>   -1.2760    1.0001 </r>
       <r>   -1.2157    1.0006 </r>
       <r>   -1.1784    1.0014 </r>
       <r>   -1.1336    1.0034 </r>
       <r>   -1.0831    1.0083 </r>
       <r>   -0.9196    1.0350 </r>
       <r>   -0.8671    1.0128 </r>
       <r>   -0.8475    0.9927 </r>
       <r>   -0.7167    0.6307 </r>
       <r>   -0.6722    0.4443 </r>
       <r>   -0.6064    0.1928 </r>
       <r>   -0.5654    0.0799 </r>
       <r>   -0.4639   -0.0330 </r>
       <r>   -0.3389   -0.0172 </r>
       <r>    0.0250   -0.0000 </r>
       <r>    0.3806   -0.0000 </r>
       <r>    0.6664   -0.0000 </r>
       <r>    1.0226   -0.0000 </r>
       <r>    1.4277   -0.0000 </r>
       <r>    1.8161   -0.0000 </r>
       <r>    2.0024   -0.0000 </r>
       <r>    2.3710   -0.0000 </r>
       <r>    2.4836   -0.0000 </r>
       <r>    3.2432   -0.0000 </r>
       <r>    3.6098   -0.0000 </r>
      </set>
      <set comment="kpoint 7">
       <r>   -9.3866    1.0000 </r>
       <r>   -8.1883    1.0000 </r>
       <r>   -7.3967    1.0000 </r>
       <r>   -7.1140    1.0000 </r>
       <r>   -7.0041    1.0000 </r>
       <r>   -6.9937    1.0000 </r>
       <r>   -6.9489    1.0000 </r>
       <r>   -6.7756    1.0000 </r>
       <r>   -6.7249    1.0000 </r>
       <r>   -6.6496    1.0000 </r>
       <r>   -6.5603    1.0000 </r>
       <r>   -6.4482    1.0000 </r>
       <r>   -6.3430    1.0000 </r>
       <r>   -6.3092    1.0000 </r>
       <r>   -6.2154    1.0000 </r>
       <r>   -6.1633    1.0000 </r>
       <r>   -6.0352    1.0000 </r>
       <r>   -5.9354    1.0000 </r>
       <r>   -5.8703    1.0000 </r>
       <r>   -5.7038    1.0000 </r>
       <r>   -5.4792    1.0000 </r>
       <r>   -5.4616    1.0000 </r>
       <r>   -5.2916    1.0000 </r>
       <r>   -4.9661    1.0000 </r>
       <r>   -4.9019    1.0000 </r>
       <r>   -4.7937    1.0000 </r>
       <r>   -4.7344    1.0000 </r>
       <r>   -4.6353    1.0000 </r>
       <r>   -4.5802    1.0000 </r>
       <r>   -4.3793    1.0000 </r>
       <r>   -4.3683    1.0000 </r>
       <r>   -4.2710    1.0000 </r>
       <r>   -4.1784    1.0000 </r>
       <r>   -4.1507    1.0000 </r>
       <r>   -4.1280    1.0000 </r>
       <r>   -3.9715    1.0000 </r>
       <r>   -3.9107    1.0000 </r>
       <r>   -3.8739    1.0000 </r>
       <r>   -3.7993    1.0000 </r>
       <r>   -3.7649    1.0000 </r>
       <r>   -3.7309    1.0000 </r>
       <r>   -3.6991    1.0000 </r>
       <r>   -3.6643    1.0000 </r>
       <r>   -3.6382    1.0000 </r>
       <r>   -3.5540    1.0000 </r>
       <r>   -3.4896    1.0000 </r>
       <r>   -3.3994    1.0000 </r>
       <r>   -3.1616    1.0000 </r>
       <r>   -3.1420    1.0000 </r>
       <r>   -2.9687    1.0000 </r>
       <r>   -2.9075    1.0000 </r>
       <r>   -2.7667    1.0000 </r>
       <r>   -2.6941    1.0000 </r>
       <r>   -2.6383    1.0000 </r>
       <r>   -2.5696    1.0000 </r>
       <r>   -2.5092    1.0000 </r>
       <r>   -2.4866    1.0000 </r>
       <r>   -2.4272    1.0000 </r>
       <r>   -2.3519    1.0000 </r>
       <r>   -2.2981    1.0000 </r>
       <r>   -2.2005    1.0000 </r>
       <r>   -2.0871    1.0000 </r>
       <r>   -2.0057    1.0000 </r>
       <r>   -1.8566    1.0000 </r>
       <r>   -1.8320    1.0000 </r>
       <r>   -1.7504    1.0000 </r>
       <r>   -1.6721    1.0000 </r>
       <r>   -1.5634    1.0000 </r>
       <r>   -1.5146    1.0000 </r>
       <r>   -1.4311    1.0000 </r>
       <r>   -1.3529    1.0000 </r>
       <r>   -1.2816    1.0001 </r>
       <r>   -1.2188    1.0005 </r>
       <r>   -1.1481    1.0026 </r>
       <r>   -1.1053    1.0057 </r>
       <r>   -1.0485    1.0139 </r>
       <r>   -0.9705    1.0308 </r>
       <r>   -0.8591    1.0056 </r>
       <r>   -0.8081    0.9260 </r>
       <r>   -0.7802    0.8556 </r>
       <r>   -0.7011    0.5661 </r>
       <r>   -0.6408    0.3162 </r>
       <r>   -0.5430    0.0360 </r>
       <r>   -0.4647   -0.0328 </r>
       <r>   -0.3802   -0.0265 </r>
       <r>    0.0080   -0.0000 </r>
       <r>    0.4079   -0.0000 </r>
       <r>    0.6695   -0.0000 </r>
       <r>    1.0267   -0.0000 </r>
       <r>    1.4449   -0.0000 </r>
       <r>    1.8287   -0.0000 </r>
       <r>    1.9722   -0.0000 </r>
       <r>    2.3809   -0.0000 </r>
       <r>    2.5178   -0.0000 </r>
       <r>    3.2358   -0.0000 </r>
       <r>    3.5929   -0.0000 </r>
      </set>
      <set comment="kpoint 8">
       <r>   -9.3868    1.0000 </r>
       <r>   -8.1886    1.0000 </r>
       <r>   -7.3978    1.0000 </r>
       <r>   -7.1144    1.0000 </r>
       <r>   -7.0090    1.0000 </r>
       <r>   -6.9901    1.0000 </r>
       <r>   -6.9489    1.0000 </r>
       <r>   -6.7760    1.0000 </r>
       <r>   -6.7250    1.0000 </r>
       <r>   -6.6498    1.0000 </r>
       <r>   -6.5602    1.0000 </r>
       <r>   -6.4496    1.0000 </r>
       <r>   -6.3421    1.0000 </r>
       <r>   -6.3093    1.0000 </r>
       <r>   -6.2101    1.0000 </r>
       <r>   -6.1691    1.0000 </r>
       <r>   -6.0287    1.0000 </r>
       <r>   -5.9383    1.0000 </r>
       <r>   -5.8835    1.0000 </r>
       <r>   -5.6922    1.0000 </r>
       <r>   -5.4963    1.0000 </r>
       <r>   -5.4494    1.0000 </r>
       <r>   -5.2842    1.0000 </r>
       <r>   -4.9766    1.0000 </r>
       <r>   -4.9042    1.0000 </r>
       <r>   -4.7871    1.0000 </r>
       <r>   -4.7217    1.0000 </r>
       <r>   -4.6445    1.0000 </r>
       <r>   -4.5759    1.0000 </r>
       <r>   -4.3736    1.0000 </r>
       <r>   -4.3709    1.0000 </r>
       <r>   -4.2795    1.0000 </r>
       <r>   -4.1905    1.0000 </r>
       <r>   -4.1542    1.0000 </r>
       <r>   -4.1108    1.0000 </r>
       <r>   -3.9553    1.0000 </r>
       <r>   -3.9262    1.0000 </r>
       <r>   -3.8640    1.0000 </r>
       <r>   -3.7999    1.0000 </r>
       <r>   -3.7784    1.0000 </r>
       <r>   -3.7282    1.0000 </r>
       <r>   -3.6994    1.0000 </r>
       <r>   -3.6585    1.0000 </r>
       <r>   -3.6305    1.0000 </r>
       <r>   -3.5320    1.0000 </r>
       <r>   -3.4890    1.0000 </r>
       <r>   -3.3911    1.0000 </r>
       <r>   -3.1840    1.0000 </r>
       <r>   -3.1506    1.0000 </r>
       <r>   -2.9884    1.0000 </r>
       <r>   -2.8865    1.0000 </r>
       <r>   -2.7746    1.0000 </r>
       <r>   -2.6691    1.0000 </r>
       <r>   -2.6326    1.0000 </r>
       <r>   -2.5627    1.0000 </r>
       <r>   -2.5234    1.0000 </r>
       <r>   -2.4808    1.0000 </r>
       <r>   -2.4532    1.0000 </r>
       <r>   -2.3629    1.0000 </r>
       <r>   -2.2858    1.0000 </r>
       <r>   -2.2068    1.0000 </r>
       <r>   -2.0614    1.0000 </r>
       <r>   -1.9824    1.0000 </r>
       <r>   -1.9366    1.0000 </r>
       <r>   -1.7882    1.0000 </r>
       <r>   -1.7614    1.0000 </r>
       <r>   -1.7196    1.0000 </r>
       <r>   -1.5904    1.0000 </r>
       <r>   -1.4736    1.0000 </r>
       <r>   -1.4192    1.0000 </r>
       <r>   -1.3801    1.0000 </r>
       <r>   -1.2973    1.0001 </r>
       <r>   -1.2350    1.0004 </r>
       <r>   -1.1652    1.0018 </r>
       <r>   -1.1403    1.0030 </r>
       <r>   -1.0332    1.0169 </r>
       <r>   -0.9169    1.0347 </r>
       <r>   -0.8757    1.0193 </r>
       <r>   -0.8359    0.9768 </r>
       <r>   -0.7243    0.6611 </r>
       <r>   -0.6527    0.3636 </r>
       <r>   -0.6188    0.2347 </r>
       <r>   -0.5696    0.0895 </r>
       <r>   -0.4531   -0.0348 </r>
       <r>   -0.3394   -0.0173 </r>
       <r>    0.0183   -0.0000 </r>
       <r>    0.3838   -0.0000 </r>
       <r>    0.6665   -0.0000 </r>
       <r>    1.0226   -0.0000 </r>
       <r>    1.4323   -0.0000 </r>
       <r>    1.8149   -0.0000 </r>
       <r>    1.9968   -0.0000 </r>
       <r>    2.3761   -0.0000 </r>
       <r>    2.4794   -0.0000 </r>
       <r>    3.2364   -0.0000 </r>
       <r>    3.6043   -0.0000 </r>
      </set>
      <set comment="kpoint 9">
       <r>   -8.7494    1.0000 </r>
       <r>   -7.7637    1.0000 </r>
       <r>   -7.6372    1.0000 </r>
       <r>   -7.0395    1.0000 </r>
       <r>   -6.6774    1.0000 </r>
       <r>   -6.6196    1.0000 </r>
       <r>   -6.5407    1.0000 </r>
       <r>   -6.4564    1.0000 </r>
       <r>   -6.4074    1.0000 </r>
       <r>   -6.3959    1.0000 </r>
       <r>   -6.3339    1.0000 </r>
       <r>   -6.1838    1.0000 </r>
       <r>   -6.0553    1.0000 </r>
       <r>   -5.9931    1.0000 </r>
       <r>   -5.9248    1.0000 </r>
       <r>   -5.8759    1.0000 </r>
       <r>   -5.7713    1.0000 </r>
       <r>   -5.5846    1.0000 </r>
       <r>   -5.5469    1.0000 </r>
       <r>   -5.3914    1.0000 </r>
       <r>   -5.2767    1.0000 </r>
       <r>   -5.2317    1.0000 </r>
       <r>   -5.1848    1.0000 </r>
       <r>   -5.0978    1.0000 </r>
       <r>   -5.0594    1.0000 </r>
       <r>   -4.9352    1.0000 </r>
       <r>   -4.8725    1.0000 </r>
       <r>   -4.8185    1.0000 </r>
       <r>   -4.6216    1.0000 </r>
       <r>   -4.5883    1.0000 </r>
       <r>   -4.5058    1.0000 </r>
       <r>   -4.4590    1.0000 </r>
       <r>   -4.3678    1.0000 </r>
       <r>   -4.3230    1.0000 </r>
       <r>   -4.3043    1.0000 </r>
       <r>   -4.1697    1.0000 </r>
       <r>   -4.0682    1.0000 </r>
       <r>   -4.0096    1.0000 </r>
       <r>   -3.9659    1.0000 </r>
       <r>   -3.8625    1.0000 </r>
       <r>   -3.7879    1.0000 </r>
       <r>   -3.7161    1.0000 </r>
       <r>   -3.6768    1.0000 </r>
       <r>   -3.6170    1.0000 </r>
       <r>   -3.5602    1.0000 </r>
       <r>   -3.4947    1.0000 </r>
       <r>   -3.4623    1.0000 </r>
       <r>   -3.4317    1.0000 </r>
       <r>   -3.3504    1.0000 </r>
       <r>   -3.2897    1.0000 </r>
       <r>   -3.1959    1.0000 </r>
       <r>   -3.1707    1.0000 </r>
       <r>   -3.1275    1.0000 </r>
       <r>   -3.0706    1.0000 </r>
       <r>   -2.9223    1.0000 </r>
       <r>   -2.8648    1.0000 </r>
       <r>   -2.7847    1.0000 </r>
       <r>   -2.7194    1.0000 </r>
       <r>   -2.6722    1.0000 </r>
       <r>   -2.6348    1.0000 </r>
       <r>   -2.4190    1.0000 </r>
       <r>   -2.3701    1.0000 </r>
       <r>   -2.3095    1.0000 </r>
       <r>   -2.2159    1.0000 </r>
       <r>   -2.1564    1.0000 </r>
       <r>   -2.0886    1.0000 </r>
       <r>   -2.0428    1.0000 </r>
       <r>   -1.9378    1.0000 </r>
       <r>   -1.8521    1.0000 </r>
       <r>   -1.7968    1.0000 </r>
       <r>   -1.7355    1.0000 </r>
       <r>   -1.7254    1.0000 </r>
       <r>   -1.5240    1.0000 </r>
       <r>   -1.4179    1.0000 </r>
       <r>   -1.3675    1.0000 </r>
       <r>   -1.3001    1.0001 </r>
       <r>   -1.1340    1.0034 </r>
       <r>   -1.0107    1.0219 </r>
       <r>   -0.9313    1.0355 </r>
       <r>   -0.7576    0.7846 </r>
       <r>   -0.7379    0.7140 </r>
       <r>   -0.6192    0.2362 </r>
       <r>   -0.5907    0.1447 </r>
       <r>   -0.4621   -0.0334 </r>
       <r>   -0.3559   -0.0209 </r>
       <r>   -0.2344   -0.0032 </r>
       <r>    0.6885   -0.0000 </r>
       <r>    0.8184   -0.0000 </r>
       <r>    1.1527   -0.0000 </r>
       <r>    1.5754   -0.0000 </r>
       <r>    1.9056   -0.0000 </r>
       <r>    2.1437   -0.0000 </r>
       <r>    2.5156   -0.0000 </r>
       <r>    2.6897   -0.0000 </r>
       <r>    3.5230   -0.0000 </r>
       <r>    3.8075   -0.0000 </r>
      </set>
      <set comment="kpoint 10">
       <r>   -8.7489    1.0000 </r>
       <r>   -7.7634    1.0000 </r>
       <r>   -7.6363    1.0000 </r>
       <r>   -7.0403    1.0000 </r>
       <r>   -6.6789    1.0000 </r>
       <r>   -6.6176    1.0000 </r>
       <r>   -6.5348    1.0000 </r>
       <r>   -6.4515    1.0000 </r>
       <r>   -6.4129    1.0000 </r>
       <r>   -6.3913    1.0000 </r>
       <r>   -6.3377    1.0000 </r>
       <r>   -6.1846    1.0000 </r>
       <r>   -6.0527    1.0000 </r>
       <r>   -5.9914    1.0000 </r>
       <r>   -5.9281    1.0000 </r>
       <r>   -5.8723    1.0000 </r>
       <r>   -5.7663    1.0000 </r>
       <r>   -5.5900    1.0000 </r>
       <r>   -5.5402    1.0000 </r>
       <r>   -5.4014    1.0000 </r>
       <r>   -5.2848    1.0000 </r>
       <r>   -5.2311    1.0000 </r>
       <r>   -5.1953    1.0000 </r>
       <r>   -5.1056    1.0000 </r>
       <r>   -5.0302    1.0000 </r>
       <r>   -4.9267    1.0000 </r>
       <r>   -4.8755    1.0000 </r>
       <r>   -4.8264    1.0000 </r>
       <r>   -4.6174    1.0000 </r>
       <r>   -4.6019    1.0000 </r>
       <r>   -4.5109    1.0000 </r>
       <r>   -4.4755    1.0000 </r>
       <r>   -4.3712    1.0000 </r>
       <r>   -4.3179    1.0000 </r>
       <r>   -4.2823    1.0000 </r>
       <r>   -4.1718    1.0000 </r>
       <r>   -4.0825    1.0000 </r>
       <r>   -4.0016    1.0000 </r>
       <r>   -3.9558    1.0000 </r>
       <r>   -3.8660    1.0000 </r>
       <r>   -3.8006    1.0000 </r>
       <r>   -3.7092    1.0000 </r>
       <r>   -3.6796    1.0000 </r>
       <r>   -3.6208    1.0000 </r>
       <r>   -3.5549    1.0000 </r>
       <r>   -3.4949    1.0000 </r>
       <r>   -3.4639    1.0000 </r>
       <r>   -3.4361    1.0000 </r>
       <r>   -3.3641    1.0000 </r>
       <r>   -3.2822    1.0000 </r>
       <r>   -3.2417    1.0000 </r>
       <r>   -3.1725    1.0000 </r>
       <r>   -3.1065    1.0000 </r>
       <r>   -3.0456    1.0000 </r>
       <r>   -2.9062    1.0000 </r>
       <r>   -2.8594    1.0000 </r>
       <r>   -2.8099    1.0000 </r>
       <r>   -2.7377    1.0000 </r>
       <r>   -2.6629    1.0000 </r>
       <r>   -2.6432    1.0000 </r>
       <r>   -2.3896    1.0000 </r>
       <r>   -2.3472    1.0000 </r>
       <r>   -2.2637    1.0000 </r>
       <r>   -2.2344    1.0000 </r>
       <r>   -2.1849    1.0000 </r>
       <r>   -2.0814    1.0000 </r>
       <r>   -2.0182    1.0000 </r>
       <r>   -1.9329    1.0000 </r>
       <r>   -1.8792    1.0000 </r>
       <r>   -1.8146    1.0000 </r>
       <r>   -1.7307    1.0000 </r>
       <r>   -1.7067    1.0000 </r>
       <r>   -1.5381    1.0000 </r>
       <r>   -1.4071    1.0000 </r>
       <r>   -1.2963    1.0001 </r>
       <r>   -1.2370    1.0003 </r>
       <r>   -1.1539    1.0023 </r>
       <r>   -1.0390    1.0157 </r>
       <r>   -1.0100    1.0220 </r>
       <r>   -0.7706    0.8269 </r>
       <r>   -0.7158    0.6269 </r>
       <r>   -0.6888    0.5143 </r>
       <r>   -0.5968    0.1628 </r>
       <r>   -0.4428   -0.0354 </r>
       <r>   -0.3974   -0.0302 </r>
       <r>   -0.2111   -0.0020 </r>
       <r>    0.6833   -0.0000 </r>
       <r>    0.8236   -0.0000 </r>
       <r>    1.1514   -0.0000 </r>
       <r>    1.6237   -0.0000 </r>
       <r>    1.9279   -0.0000 </r>
       <r>    2.1106   -0.0000 </r>
       <r>    2.4959   -0.0000 </r>
       <r>    2.7232   -0.0000 </r>
       <r>    3.5230   -0.0000 </r>
       <r>    3.7807   -0.0000 </r>
      </set>
      <set comment="kpoint 11">
       <r>   -8.7494    1.0000 </r>
       <r>   -7.7637    1.0000 </r>
       <r>   -7.6373    1.0000 </r>
       <r>   -7.0396    1.0000 </r>
       <r>   -6.6778    1.0000 </r>
       <r>   -6.6219    1.0000 </r>
       <r>   -6.5385    1.0000 </r>
       <r>   -6.4545    1.0000 </r>
       <r>   -6.4069    1.0000 </r>
       <r>   -6.3960    1.0000 </r>
       <r>   -6.3351    1.0000 </r>
       <r>   -6.1865    1.0000 </r>
       <r>   -6.0529    1.0000 </r>
       <r>   -5.9948    1.0000 </r>
       <r>   -5.9261    1.0000 </r>
       <r>   -5.8750    1.0000 </r>
       <r>   -5.7710    1.0000 </r>
       <r>   -5.5841    1.0000 </r>
       <r>   -5.5472    1.0000 </r>
       <r>   -5.3900    1.0000 </r>
       <r>   -5.2802    1.0000 </r>
       <r>   -5.2278    1.0000 </r>
       <r>   -5.1874    1.0000 </r>
       <r>   -5.0993    1.0000 </r>
       <r>   -5.0594    1.0000 </r>
       <r>   -4.9327    1.0000 </r>
       <r>   -4.8755    1.0000 </r>
       <r>   -4.8125    1.0000 </r>
       <r>   -4.6257    1.0000 </r>
       <r>   -4.5874    1.0000 </r>
       <r>   -4.5083    1.0000 </r>
       <r>   -4.4627    1.0000 </r>
       <r>   -4.3689    1.0000 </r>
       <r>   -4.3304    1.0000 </r>
       <r>   -4.2869    1.0000 </r>
       <r>   -4.1747    1.0000 </r>
       <r>   -4.0666    1.0000 </r>
       <r>   -4.0153    1.0000 </r>
       <r>   -3.9589    1.0000 </r>
       <r>   -3.8624    1.0000 </r>
       <r>   -3.7807    1.0000 </r>
       <r>   -3.7226    1.0000 </r>
       <r>   -3.6580    1.0000 </r>
       <r>   -3.6173    1.0000 </r>
       <r>   -3.5453    1.0000 </r>
       <r>   -3.4909    1.0000 </r>
       <r>   -3.4806    1.0000 </r>
       <r>   -3.4121    1.0000 </r>
       <r>   -3.3719    1.0000 </r>
       <r>   -3.2902    1.0000 </r>
       <r>   -3.2347    1.0000 </r>
       <r>   -3.1580    1.0000 </r>
       <r>   -3.1063    1.0000 </r>
       <r>   -3.0822    1.0000 </r>
       <r>   -2.8965    1.0000 </r>
       <r>   -2.8731    1.0000 </r>
       <r>   -2.7970    1.0000 </r>
       <r>   -2.7168    1.0000 </r>
       <r>   -2.6863    1.0000 </r>
       <r>   -2.6416    1.0000 </r>
       <r>   -2.4047    1.0000 </r>
       <r>   -2.3934    1.0000 </r>
       <r>   -2.2890    1.0000 </r>
       <r>   -2.2244    1.0000 </r>
       <r>   -2.1504    1.0000 </r>
       <r>   -2.0860    1.0000 </r>
       <r>   -2.0328    1.0000 </r>
       <r>   -1.9432    1.0000 </r>
       <r>   -1.8722    1.0000 </r>
       <r>   -1.8233    1.0000 </r>
       <r>   -1.7442    1.0000 </r>
       <r>   -1.6848    1.0000 </r>
       <r>   -1.5202    1.0000 </r>
       <r>   -1.4055    1.0000 </r>
       <r>   -1.3678    1.0000 </r>
       <r>   -1.3073    1.0000 </r>
       <r>   -1.1428    1.0028 </r>
       <r>   -0.9903    1.0265 </r>
       <r>   -0.9242    1.0353 </r>
       <r>   -0.7879    0.8768 </r>
       <r>   -0.7313    0.6885 </r>
       <r>   -0.6208    0.2418 </r>
       <r>   -0.5526    0.0533 </r>
       <r>   -0.4902   -0.0224 </r>
       <r>   -0.3583   -0.0214 </r>
       <r>   -0.2327   -0.0031 </r>
       <r>    0.6942   -0.0000 </r>
       <r>    0.8213   -0.0000 </r>
       <r>    1.1471   -0.0000 </r>
       <r>    1.5749   -0.0000 </r>
       <r>    1.9014   -0.0000 </r>
       <r>    2.1525   -0.0000 </r>
       <r>    2.5122   -0.0000 </r>
       <r>    2.6904   -0.0000 </r>
       <r>    3.5208   -0.0000 </r>
       <r>    3.7967   -0.0000 </r>
      </set>
      <set comment="kpoint 12">
       <r>   -8.4011    1.0000 </r>
       <r>   -8.0561    1.0000 </r>
       <r>   -7.3977    1.0000 </r>
       <r>   -7.1500    1.0000 </r>
       <r>   -6.5717    1.0000 </r>
       <r>   -6.5124    1.0000 </r>
       <r>   -6.4698    1.0000 </r>
       <r>   -6.3722    1.0000 </r>
       <r>   -6.3156    1.0000 </r>
       <r>   -6.2428    1.0000 </r>
       <r>   -6.1998    1.0000 </r>
       <r>   -6.1043    1.0000 </r>
       <r>   -6.0475    1.0000 </r>
       <r>   -5.9342    1.0000 </r>
       <r>   -5.8308    1.0000 </r>
       <r>   -5.7150    1.0000 </r>
       <r>   -5.5954    1.0000 </r>
       <r>   -5.5195    1.0000 </r>
       <r>   -5.4416    1.0000 </r>
       <r>   -5.4264    1.0000 </r>
       <r>   -5.2677    1.0000 </r>
       <r>   -5.2058    1.0000 </r>
       <r>   -5.1073    1.0000 </r>
       <r>   -5.0786    1.0000 </r>
       <r>   -5.0337    1.0000 </r>
       <r>   -4.9921    1.0000 </r>
       <r>   -4.9182    1.0000 </r>
       <r>   -4.8495    1.0000 </r>
       <r>   -4.7028    1.0000 </r>
       <r>   -4.6723    1.0000 </r>
       <r>   -4.5279    1.0000 </r>
       <r>   -4.4857    1.0000 </r>
       <r>   -4.4437    1.0000 </r>
       <r>   -4.4305    1.0000 </r>
       <r>   -4.3319    1.0000 </r>
       <r>   -4.2552    1.0000 </r>
       <r>   -4.1205    1.0000 </r>
[...]
       <r>   -4.2830    1.0000 </r>
       <r>   -4.2021    1.0000 </r>
       <r>   -4.1268    1.0000 </r>
       <r>   -4.0373    1.0000 </r>
       <r>   -4.0119    1.0000 </r>
       <r>   -3.9776    1.0000 </r>
       <r>   -3.9354    1.0000 </r>
       <r>   -3.8025    1.0000 </r>
       <r>   -3.7363    1.0000 </r>
       <r>   -3.6830    1.0000 </r>
       <r>   -3.6182    1.0000 </r>
       <r>   -3.5750    1.0000 </r>
       <r>   -3.4955    1.0000 </r>
       <r>   -3.4796    1.0000 </r>
       <r>   -3.4518    1.0000 </r>
       <r>   -3.3802    1.0000 </r>
       <r>   -3.2560    1.0000 </r>
       <r>   -3.2008    1.0000 </r>
       <r>   -3.0381    1.0000 </r>
       <r>   -2.8730    1.0000 </r>
       <r>   -2.8124    1.0000 </r>
       <r>   -2.7345    1.0000 </r>
       <r>   -2.7131    1.0000 </r>
       <r>   -2.6174    1.0000 </r>
       <r>   -2.5856    1.0000 </r>
       <r>   -2.4847    1.0000 </r>
       <r>   -2.4030    1.0000 </r>
       <r>   -2.3308    1.0000 </r>
       <r>   -2.2964    1.0000 </r>
       <r>   -2.2139    1.0000 </r>
       <r>   -2.1340    1.0000 </r>
       <r>   -2.0991    1.0000 </r>
       <r>   -2.0117    1.0000 </r>
       <r>   -1.9057    1.0000 </r>
       <r>   -1.8303    1.0000 </r>
       <r>   -1.7491    1.0000 </r>
       <r>   -1.7050    1.0000 </r>
       <r>   -1.6489    1.0000 </r>
       <r>   -1.4719    1.0000 </r>
       <r>   -1.4401    1.0000 </r>
       <r>   -1.3888    1.0000 </r>
       <r>   -1.2141    1.0006 </r>
       <r>   -1.0286    1.0179 </r>
       <r>   -0.9542    1.0336 </r>
       <r>   -0.8207    0.9513 </r>
       <r>   -0.7510    0.7615 </r>
       <r>   -0.6624    0.4036 </r>
       <r>   -0.6159    0.2246 </r>
       <r>   -0.4819   -0.0269 </r>
       <r>   -0.4442   -0.0354 </r>
       <r>   -0.3085   -0.0114 </r>
       <r>    0.3360   -0.0000 </r>
       <r>    0.5706   -0.0000 </r>
       <r>    0.8780   -0.0000 </r>
       <r>    1.5341   -0.0000 </r>
       <r>    1.5934   -0.0000 </r>
       <r>    2.4774   -0.0000 </r>
       <r>    2.7585   -0.0000 </r>
       <r>    3.2861   -0.0000 </r>
       <r>    3.5986   -0.0000 </r>
       <r>    4.0096   -0.0000 </r>
      </set>
     </set>
    </set>
   </array>
  </eigenvalues>
  <separator name="orbital magnetization" >
   <v name="MAGDIPOLOUT">      0.00000000      0.00000000      0.00000000</v>
  </separator>
  <dos>
   <i name="efermi">     -0.68540252 </i>
   <total>
    <array>
     <dimension dim="1">gridpoints</dimension>
     <dimension dim="2">spin</dimension>
     <field>energy</field>
     <field>total</field>
     <field>integrated</field>
     <set>
      <set comment="spin 1">
       <r>   -12.0429     0.0000     0.0000 </r>
       <r>   -11.9810     0.0000     0.0000 </r>
       <r>   -11.9191     0.0000     0.0000 </r>
       <r>   -11.8572     0.0000     0.0000 </r>
       <r>   -11.7953     0.0000     0.0000 </r>
       <r>   -11.7334     0.0000     0.0000 </r>
       <r>   -11.6715    -0.0000    -0.0000 </r>
       <r>   -11.6096    -0.0000    -0.0000 </r>
       <r>   -11.5477    -0.0000    -0.0000 </r>
       <r>   -11.4858    -0.0000    -0.0000 </r>
       <r>   -11.4239    -0.0000    -0.0000 </r>
       <r>   -11.3620    -0.0000    -0.0000 </r>
       <r>   -11.3001    -0.0000    -0.0000 </r>
       <r>   -11.2381    -0.0000    -0.0000 </r>
       <r>   -11.1762    -0.0000    -0.0000 </r>
       <r>   -11.1143    -0.0000    -0.0000 </r>
       <r>   -11.0524    -0.0000    -0.0000 </r>
       <r>   -10.9905    -0.0000    -0.0000 </r>
       <r>   -10.9286    -0.0000    -0.0000 </r>
       <r>   -10.8667    -0.0000    -0.0000 </r>
       <r>   -10.8048    -0.0000    -0.0000 </r>
       <r>   -10.7429    -0.0000    -0.0000 </r>
       <r>   -10.6810    -0.0000    -0.0000 </r>
       <r>   -10.6191    -0.0002    -0.0000 </r>
       <r>   -10.5572    -0.0008    -0.0001 </r>
       <r>   -10.4953    -0.0029    -0.0002 </r>
       <r>   -10.4334    -0.0085    -0.0008 </r>
       <r>   -10.3715    -0.0186    -0.0019 </r>
       <r>   -10.3096    -0.0280    -0.0037 </r>
       <r>   -10.2477    -0.0182    -0.0048 </r>
       <r>   -10.1858     0.0404    -0.0023 </r>
       <r>   -10.1239     0.1679     0.0081 </r>
       <r>   -10.0620     0.3515     0.0299 </r>
       <r>   -10.0000     0.5506     0.0640 </r>
       <r>    -9.9381     0.7270     0.1090 </r>
       <r>    -9.8762     0.8594     0.1622 </r>
       <r>    -9.8143     0.9305     0.2198 </r>
       <r>    -9.7524     0.9255     0.2771 </r>
       <r>    -9.6905     0.8551     0.3300 </r>
       <r>    -9.6286     0.7721     0.3778 </r>
       <r>    -9.5667     0.7523     0.4244 </r>
       <r>    -9.5048     0.8397     0.4763 </r>
       <r>    -9.4429     0.9899     0.5376 </r>
       <r>    -9.3810     1.0902     0.6051 </r>
       <r>    -9.3191     1.0660     0.6711 </r>
       <r>    -9.2572     0.9500     0.7299 </r>
       <r>    -9.1953     0.8275     0.7811 </r>
       <r>    -9.1334     0.7485     0.8275 </r>
       <r>    -9.0715     0.7292     0.8726 </r>
       <r>    -9.0096     0.8089     0.9227 </r>
       <r>    -8.9477     1.0342     0.9867 </r>
       <r>    -8.8858     1.3703     1.0716 </r>
       <r>    -8.8238     1.6846     1.1758 </r>
       <r>    -8.7619     1.8652     1.2913 </r>
       <r>    -8.7000     1.9221     1.4103 </r>
       <r>    -8.6381     1.9278     1.5296 </r>
       <r>    -8.5762     1.9000     1.6473 </r>
       <r>    -8.5143     1.8111     1.7594 </r>
       <r>    -8.4524     1.7017     1.8647 </r>
       <r>    -8.3905     1.7109     1.9706 </r>
       <r>    -8.3286     1.9525     2.0915 </r>
       <r>    -8.2667     2.3617     2.2377 </r>
       <r>    -8.2048     2.6971     2.4047 </r>
       <r>    -8.1429     2.7465     2.5747 </r>
       <r>    -8.0810     2.5284     2.7312 </r>
       <r>    -8.0191     2.2545     2.8708 </r>
       <r>    -7.9572     2.1118     3.0015 </r>
       <r>    -7.8953     2.1443     3.1343 </r>
       <r>    -7.8334     2.3363     3.2789 </r>
       <r>    -7.7715     2.7267     3.4477 </r>
       <r>    -7.7096     3.3825     3.6571 </r>
       <r>    -7.6476     4.2585     3.9207 </r>
       <r>    -7.5857     5.1333     4.2385 </r>
       <r>    -7.5238     5.7819     4.5964 </r>
       <r>    -7.4619     6.2525     4.9835 </r>
       <r>    -7.4000     6.8662     5.4085 </r>
       <r>    -7.3381     7.8710     5.8958 </r>
       <r>    -7.2762     9.2067     6.4657 </r>
       <r>    -7.2143    10.6646     7.1259 </r>
       <r>    -7.1524    12.0900     7.8744 </r>
       <r>    -7.0905    13.2974     8.6975 </r>
       <r>    -7.0286    13.9671     9.5622 </r>
       <r>    -6.9667    13.8579    10.4201 </r>
       <r>    -6.9048    13.1486    11.2340 </r>
       <r>    -6.8429    12.4991    12.0078 </r>
       <r>    -6.7810    12.7357    12.7962 </r>
       <r>    -6.7191    14.3560    13.6849 </r>
       <r>    -6.6572    17.1444    14.7462 </r>
       <r>    -6.5953    20.2330    15.9988 </r>
       <r>    -6.5334    22.6981    17.4039 </r>
       <r>    -6.4714    24.1683    18.9000 </r>
       <r>    -6.4095    24.8008    20.4353 </r>
       <r>    -6.3476    24.8093    21.9712 </r>
       <r>    -6.2857    24.2852    23.4745 </r>
       <r>    -6.2238    23.4289    24.9249 </r>
       <r>    -6.1619    22.6126    26.3248 </r>
       <r>    -6.1000    22.0723    27.6911 </r>
       <r>    -6.0381    21.6734    29.0328 </r>
       <r>    -5.9762    21.0694    30.3371 </r>
       <r>    -5.9143    20.0524    31.5785 </r>
       <r>    -5.8524    18.7647    32.7401 </r>
       <r>    -5.7905    17.6276    33.8314 </r>
       <r>    -5.7286    17.0527    34.8870 </r>
       <r>    -5.6667    17.1735    35.9502 </r>
       <r>    -5.6048    17.8211    37.0534 </r>
       <r>    -5.5429    18.6992    38.2109 </r>
       <r>    -5.4810    19.5345    39.4202 </r>
       <r>    -5.4191    20.1175    40.6656 </r>
       <r>    -5.3572    20.3261    41.9239 </r>
       <r>    -5.2952    20.1807    43.1732 </r>
       <r>    -5.2333    19.8714    44.4033 </r>
       <r>    -5.1714    19.6872    45.6221 </r>
       <r>    -5.1095    19.8355    46.8500 </r>
       <r>    -5.0476    20.2930    48.1063 </r>
       <r>    -4.9857    20.8775    49.3987 </r>
       <r>    -4.9238    21.4333    50.7255 </r>
       <r>    -4.8619    21.8392    52.0775 </r>
       <r>    -4.8000    21.9359    53.4354 </r>
       <r>    -4.7381    21.7002    54.7788 </r>
       <r>    -4.6762    21.5252    56.1113 </r>
       <r>    -4.6143    22.1247    57.4809 </r>
       <r>    -4.5524    23.9881    58.9659 </r>
       <r>    -4.4905    26.8255    60.6266 </r>
       <r>    -4.4286    29.4945    62.4524 </r>
       <r>    -4.3667    30.6370    64.3490 </r>
       <r>    -4.3048    29.7404    66.1901 </r>
       <r>    -4.2429    27.7278    67.9066 </r>
       <r>    -4.1810    26.3176    69.5358 </r>
       <r>    -4.1190    26.6073    71.1829 </r>
       <r>    -4.0571    28.2999    72.9348 </r>
       <r>    -3.9952    30.3203    74.8118 </r>
       <r>    -3.9333    31.9768    76.7914 </r>
       <r>    -3.8714    33.3152    78.8538 </r>
       <r>    -3.8095    34.4848    80.9885 </r>
       <r>    -3.7476    35.1935    83.1672 </r>
       <r>    -3.6857    35.0364    85.3361 </r>
       <r>    -3.6238    34.1409    87.4496 </r>
       <r>    -3.5619    33.0785    89.4974 </r>
       <r>    -3.5000    32.0635    91.4823 </r>
       <r>    -3.4381    30.5882    93.3758 </r>
       <r>    -3.3762    28.1231    95.1168 </r>
       <r>    -3.3143    24.9573    96.6618 </r>
       <r>    -3.2524    22.0041    98.0240 </r>
       <r>    -3.1905    19.9012    99.2560 </r>
       <r>    -3.1286    18.6720   100.4119 </r>
       <r>    -3.0667    18.2289   101.5403 </r>
       <r>    -3.0048    18.7774   102.7027 </r>
       <r>    -2.9428    20.5250   103.9733 </r>
       <r>    -2.8809    23.1982   105.4094 </r>
       <r>    -2.8190    26.0095   107.0196 </r>
       <r>    -2.7571    27.9983   108.7528 </r>
       <r>    -2.6952    28.3918   110.5104 </r>
       <r>    -2.6333    26.9682   112.1799 </r>
       <r>    -2.5714    24.3772   113.6890 </r>
       <r>    -2.5095    21.9621   115.0485 </r>
       <r>    -2.4476    20.8953   116.3420 </r>
       <r>    -2.3857    21.3720   117.6651 </r>
       <r>    -2.3238    22.6924   119.0699 </r>
       <r>    -2.2619    23.9919   120.5551 </r>
       <r>    -2.2000    24.7639   122.0881 </r>
       <r>    -2.1381    24.8986   123.6295 </r>
       <r>    -2.0762    24.5766   125.1509 </r>
       <r>    -2.0143    24.2136   126.6498 </r>
       <r>    -1.9524    24.3010   128.1542 </r>
       <r>    -1.8905    25.0334   129.7039 </r>
       <r>    -1.8286    25.9850   131.3125 </r>
       <r>    -1.7666    26.3134   132.9414 </r>
       <r>    -1.7047    25.5304   134.5219 </r>
       <r>    -1.6428    24.0991   136.0138 </r>
       <r>    -1.5809    23.0887   137.4431 </r>
       <r>    -1.5190    23.1392   138.8755 </r>
       <r>    -1.4571    23.8372   140.3512 </r>
       <r>    -1.3952    24.1751   141.8477 </r>
       <r>    -1.3333    23.6012   143.3088 </r>
       <r>    -1.2714    22.5858   144.7069 </r>
       <r>    -1.2095    22.1785   146.0799 </r>
       <r>    -1.1476    23.0697   147.5080 </r>
       <r>    -1.0857    25.0927   149.0614 </r>
       <r>    -1.0238    27.4846   150.7629 </r>
       <r>    -0.9619    29.4643   152.5868 </r>
       <r>    -0.9000    30.6201   154.4824 </r>
       <r>    -0.8381    30.9647   156.3993 </r>
       <r>    -0.7762    30.7186   158.3009 </r>
       <r>    -0.7143    30.0055   160.1584 </r>
       <r>    -0.6524    28.7472   161.9380 </r>
       <r>    -0.5904    26.8673   163.6012 </r>
       <r>    -0.5285    24.5014   165.1180 </r>
       <r>    -0.4666    21.8920   166.4732 </r>
       <r>    -0.4047    19.1394   167.6581 </r>
       <r>    -0.3428    16.2423   168.6636 </r>
       <r>    -0.2809    13.4009   169.4931 </r>
       <r>    -0.2190    11.0822   170.1792 </r>
       <r>    -0.1571     9.6482   170.7765 </r>
       <r>    -0.0952     8.9637   171.3314 </r>
       <r>    -0.0333     8.4582   171.8550 </r>
       <r>     0.0286     7.6035   172.3257 </r>
       <r>     0.0905     6.3388   172.7181 </r>
       <r>     0.1524     5.0507   173.0307 </r>
       <r>     0.2143     4.1865   173.2899 </r>
       <r>     0.2762     3.8968   173.5311 </r>
       <r>     0.3381     3.9993   173.7787 </r>
       <r>     0.4000     4.2378   174.0411 </r>
       <r>     0.4619     4.5550   174.3230 </r>
       <r>     0.5238     5.0691   174.6368 </r>
       <r>     0.5858     5.7657   174.9938 </r>
       <r>     0.6477     6.3306   175.3857 </r>
       <r>     0.7096     6.4184   175.7830 </r>
       <r>     0.7715     6.0375   176.1567 </r>
       <r>     0.8334     5.5390   176.4996 </r>
       <r>     0.8953     5.2580   176.8251 </r>
       <r>     0.9572     5.2901   177.1526 </r>
       <r>     1.0191     5.5471   177.4960 </r>
       <r>     1.0810     5.8291   177.8569 </r>
       <r>     1.1429     5.8464   178.2188 </r>
       <r>     1.2048     5.3937   178.5527 </r>
       <r>     1.2667     4.6005   178.8375 </r>
       <r>     1.3286     3.9003   179.0789 </r>
       <r>     1.3905     3.6852   179.3071 </r>
       <r>     1.4524     4.0225   179.5561 </r>
       <r>     1.5143     4.6724   179.8453 </r>
       <r>     1.5762     5.2913   180.1729 </r>
       <r>     1.6381     5.6588   180.5232 </r>
       <r>     1.7000     5.8180   180.8834 </r>
       <r>     1.7620     5.9824   181.2537 </r>
       <r>     1.8239     6.2177   181.6386 </r>
       <r>     1.8858     6.2587   182.0261 </r>
       <r>     1.9477     5.7756   182.3836 </r>
       <r>     2.0096     4.8074   182.6812 </r>
       <r>     2.0715     3.7909   182.9159 </r>
       <r>     2.1334     3.1571   183.1113 </r>
       <r>     2.1953     3.0341   183.2991 </r>
       <r>     2.2572     3.3387   183.5058 </r>
       <r>     2.3191     3.9824   183.7524 </r>
       <r>     2.3810     4.9015   184.0558 </r>
       <r>     2.4429     5.9583   184.4246 </r>
       <r>     2.5048     6.8800   184.8505 </r>
       <r>     2.5667     7.3205   185.3037 </r>
       <r>     2.6286     7.0416   185.7396 </r>
       <r>     2.6905     6.1112   186.1179 </r>
       <r>     2.7524     4.9329   186.4233 </r>
       <r>     2.8143     4.0200   186.6722 </r>
       <r>     2.8762     3.6689   186.8993 </r>
       <r>     2.9382     3.8067   187.1350 </r>
       <r>     3.0001     4.1219   187.3901 </r>
       <r>     3.0620     4.3382   187.6587 </r>
       <r>     3.1239     4.3963   187.9308 </r>
       <r>     3.1858     4.3976   188.2031 </r>
       <r>     3.2477     4.3932   188.4750 </r>
       <r>     3.3096     4.2820   188.7401 </r>
       <r>     3.3715     3.9678   188.9857 </r>
       <r>     3.4334     3.5663   189.2065 </r>
       <r>     3.4953     3.3371   189.4131 </r>
       <r>     3.5572     3.3973   189.6234 </r>
       <r>     3.6191     3.5941   189.8459 </r>
       <r>     3.6810     3.6925   190.0745 </r>
       <r>     3.7429     3.6134   190.2982 </r>
       <r>     3.8048     3.4506   190.5118 </r>
       <r>     3.8667     3.3125   190.7168 </r>
       <r>     3.9286     3.2080   190.9154 </r>
       <r>     3.9905     3.0873   191.1066 </r>
       <r>     4.0524     2.9352   191.2883 </r>
       <r>     4.1144     2.7633   191.4593 </r>
       <r>     4.1763     2.5326   191.6161 </r>
       <r>     4.2382     2.1596   191.7498 </r>
       <r>     4.3001     1.6261   191.8505 </r>
       <r>     4.3620     1.0450   191.9152 </r>
       <r>     4.4239     0.5819   191.9512 </r>
       <r>     4.4858     0.3203   191.9710 </r>
       <r>     4.5477     0.2137   191.9842 </r>
       <r>     4.6096     0.1599   191.9941 </r>
       <r>     4.6715     0.0992   192.0003 </r>
       <r>     4.7334     0.0366   192.0025 </r>
       <r>     4.7953    -0.0035   192.0023 </r>
       <r>     4.8572    -0.0158   192.0013 </r>
       <r>     4.9191    -0.0124   192.0006 </r>
       <r>     4.9810    -0.0062   192.0002 </r>
       <r>     5.0429    -0.0023   192.0001 </r>
       <r>     5.1048    -0.0006   192.0000 </r>
       <r>     5.1667    -0.0001   192.0000 </r>
       <r>     5.2286    -0.0000   192.0000 </r>
       <r>     5.2905    -0.0000   192.0000 </r>
       <r>     5.3525    -0.0000   192.0000 </r>
       <r>     5.4144    -0.0000   192.0000 </r>
       <r>     5.4763    -0.0000   192.0000 </r>
       <r>     5.5382    -0.0000   192.0000 </r>
       <r>     5.6001    -0.0000   192.0000 </r>
       <r>     5.6620    -0.0000   192.0000 </r>
       <r>     5.7239    -0.0000   192.0000 </r>
       <r>     5.7858    -0.0000   192.0000 </r>
       <r>     5.8477     0.0000   192.0000 </r>
       <r>     5.9096     0.0000   192.0000 </r>
       <r>     5.9715     0.0000   192.0000 </r>
       <r>     6.0334     0.0000   192.0000 </r>
       <r>     6.0953     0.0000   192.0000 </r>
       <r>     6.1572     0.0000   192.0000 </r>
       <r>     6.2191     0.0000   192.0000 </r>
       <r>     6.2810     0.0000   192.0000 </r>
       <r>     6.3429     0.0000   192.0000 </r>
       <r>     6.4048     0.0000   192.0000 </r>
       <r>     6.4667     0.0000   192.0000 </r>
       <r>     6.5287     0.0000   192.0000 </r>
      </set>
     </set>
    </array>
   </total>
  </dos>
 </calculation>
 <structure name="finalpos" >
  <crystal>
   <varray name="basis" >
    <v>       5.55785930       0.00000000       0.00000000 </v>
    <v>       2.77892965       4.81324734       0.00000000 </v>
    <v>       0.00000000       0.00000000      30.80695967 </v>
   </varray>
   <i name="volume">    824.12780743 </i>
   <varray name="rec_basis" >
    <v>       0.17992539      -0.10387997       0.00000000 </v>
    <v>       0.00000000       0.20775994       0.00000000 </v>
    <v>       0.00000000       0.00000000       0.03246020 </v>
   </varray>
  </crystal>
  <varray name="positions" >
   <v>       0.00000000       0.00000000       0.38952237 </v>
   <v>       0.50000000       0.00000000       0.38952237 </v>
   <v>       0.00000000       0.50000000       0.38952237 </v>
   <v>       0.50000000       0.50000000       0.38952237 </v>
   <v>       0.16652883       0.16652883       0.46542487 </v>
   <v>       0.66694234       0.16652883       0.46542487 </v>
   <v>       0.16652883       0.66694234       0.46542487 </v>
   <v>       0.66666667       0.66666667       0.46426737 </v>
   <v>       0.83396869       0.33206261       0.54005199 </v>
   <v>       0.33333333       0.33333333       0.53994492 </v>
   <v>       0.83396869       0.83396869       0.54005199 </v>
   <v>       0.33206261       0.83396869       0.54005199 </v>
   <v>       0.00000000       0.00000000       0.61904352 </v>
   <v>       0.50048728       0.99902544       0.61498914 </v>
   <v>       0.99902544       0.50048728       0.61498914 </v>
   <v>       0.50048728       0.50048728       0.61498914 </v>
   <v>       0.00000000       0.00000000       0.66953436 </v>
  </varray>
  <varray name="selective"  type="logical" >
   <v type="logical" >  F  F  F </v>
   <v type="logical" >  F  F  F </v>
   <v type="logical" >  F  F  F </v>
   <v type="logical" >  F  F  F </v>
   <v type="logical" >  T  T  T </v>
   <v type="logical" >  T  T  T </v>
   <v type="logical" >  T  T  T </v>
   <v type="logical" >  T  T  T </v>
   <v type="logical" >  T  T  T </v>
   <v type="logical" >  T  T  T </v>
   <v type="logical" >  T  T  T </v>
   <v type="logical" >  T  T  T </v>
   <v type="logical" >  T  T  T </v>
   <v type="logical" >  T  T  T </v>
   <v type="logical" >  T  T  T </v>
   <v type="logical" >  T  T  T </v>
   <v type="logical" >  T  T  T </v>
  </varray>
  <nose>
   <v>      -3.00000000       0.00000000       0.00010000       0.00010000 </v>
  </nose>
 </structure>
</modeling>
