  16  16   0   0
  0.5150799E+02  0.5557859E-09  0.5557859E-09  0.3080696E-08  0.5000000E-15
  1.000000000000000E-004
  CAR 
 unknown system                          
      6.49283440    -12.19313264  301     -0.81548579      1.00000000
    -12.193  0.0000E+00  0.0000E+00
    -12.131  0.0000E+00  0.0000E+00
    -12.069  0.0000E+00  0.0000E+00
    -12.006  0.0000E+00  0.0000E+00
    -11.944  0.0000E+00  0.0000E+00
    -11.882  0.0000E+00  0.0000E+00
    -11.819 -0.4432E-28 -0.2760E-29
    -11.757 -0.6107E-26 -0.3832E-27
    -11.695 -0.6937E-24 -0.4359E-25
    -11.633 -0.6479E-22 -0.4079E-23
    -11.570 -0.4974E-20 -0.3139E-21
    -11.508 -0.3139E-18 -0.1986E-19
    -11.446 -0.1627E-16 -0.1033E-17
    -11.383 -0.6931E-15 -0.4421E-16
    -11.321 -0.2347E-13 -0.1506E-14
    -11.259 -0.6721E-12 -0.4337E-13
    -11.197 -0.1577E-10 -0.1025E-11
    -11.134 -0.3030E-09 -0.1990E-10
    -11.072 -0.4768E-08 -0.3169E-09
    -11.010 -0.6135E-07 -0.4138E-08
    -10.947 -0.6445E-06 -0.4428E-07
    -10.885 -0.5516E-05 -0.3878E-06
    -10.823 -0.3834E-04 -0.2776E-05
    -10.761 -0.2156E-03 -0.1620E-04
    -10.698 -0.9737E-03 -0.7685E-04
    -10.636 -0.3495E-02 -0.2945E-03
    -10.574 -0.9774E-02 -0.9033E-03
    -10.511 -0.2043E-01 -0.2176E-02
    -10.449 -0.2837E-01 -0.3943E-02
    -10.387 -0.1219E-01 -0.4702E-02
    -10.325  0.5844E-01 -0.1062E-02
    -10.262  0.1990E+00  0.1134E-01
    -10.200  0.3897E+00  0.3561E-01
    -10.138  0.5872E+00  0.7219E-01
    -10.075  0.7564E+00  0.1193E+00
    -10.013  0.8780E+00  0.1740E+00
     -9.951  0.9343E+00  0.2322E+00
     -9.889  0.9130E+00  0.2891E+00
     -9.826  0.8335E+00  0.3410E+00
     -9.764  0.7572E+00  0.3881E+00
     -9.702  0.7598E+00  0.4355E+00
     -9.639  0.8696E+00  0.4896E+00
     -9.577  0.1020E+01  0.5532E+00
     -9.515  0.1095E+01  0.6214E+00
     -9.453  0.1042E+01  0.6863E+00
     -9.390  0.9180E+00  0.7434E+00
     -9.328  0.8068E+00  0.7937E+00
     -9.266  0.7432E+00  0.8400E+00
     -9.203  0.7364E+00  0.8859E+00
     -9.141  0.8239E+00  0.9372E+00
     -9.079  0.1041E+01  0.1002E+01
     -9.017  0.1339E+01  0.1085E+01
     -8.954  0.1600E+01  0.1185E+01
     -8.892  0.1745E+01  0.1294E+01
     -8.830  0.1805E+01  0.1406E+01
     -8.767  0.1843E+01  0.1521E+01
     -8.705  0.1855E+01  0.1636E+01
     -8.643  0.1801E+01  0.1749E+01
     -8.581  0.1720E+01  0.1856E+01
     -8.518  0.1741E+01  0.1964E+01
     -8.456  0.1971E+01  0.2087E+01
     -8.394  0.2356E+01  0.2234E+01
     -8.331  0.2681E+01  0.2401E+01
     -8.269  0.2741E+01  0.2571E+01
     -8.207  0.2540E+01  0.2730E+01
     -8.145  0.2269E+01  0.2871E+01
     -8.082  0.2097E+01  0.3002E+01
     -8.020  0.2052E+01  0.3129E+01
     -7.958  0.2154E+01  0.3264E+01
     -7.895  0.2547E+01  0.3422E+01
     -7.833  0.3353E+01  0.3631E+01
     -7.771  0.4421E+01  0.3906E+01
     -7.709  0.5358E+01  0.4240E+01
     -7.646  0.5936E+01  0.4610E+01
     -7.584  0.6363E+01  0.5006E+01
     -7.522  0.7038E+01  0.5445E+01
     -7.459  0.8134E+01  0.5951E+01
     -7.397  0.9557E+01  0.6546E+01
     -7.335  0.1115E+02  0.7241E+01
     -7.272  0.1269E+02  0.8031E+01
     -7.210  0.1380E+02  0.8890E+01
     -7.148  0.1409E+02  0.9768E+01
     -7.086  0.1354E+02  0.1061E+02
     -7.023  0.1259E+02  0.1140E+02
     -6.961  0.1202E+02  0.1214E+02
     -6.899  0.1251E+02  0.1292E+02
     -6.836  0.1432E+02  0.1382E+02
     -6.774  0.1709E+02  0.1488E+02
     -6.712  0.2005E+02  0.1613E+02
     -6.650  0.2252E+02  0.1753E+02
     -6.587  0.2418E+02  0.1904E+02
     -6.525  0.2489E+02  0.2059E+02
     -6.463  0.2461E+02  0.2212E+02
     -6.400  0.2364E+02  0.2359E+02
     -6.338  0.2263E+02  0.2500E+02
     -6.276  0.2210E+02  0.2638E+02
     -6.214  0.2185E+02  0.2774E+02
     -6.151  0.2122E+02  0.2906E+02
     -6.089  0.1971E+02  0.3029E+02
     -6.027  0.1754E+02  0.3138E+02
     -5.964  0.1544E+02  0.3234E+02
     -5.902  0.1416E+02  0.3323E+02
     -5.840  0.1408E+02  0.3410E+02
     -5.778  0.1516E+02  0.3505E+02
     -5.715  0.1706E+02  0.3611E+02
     -5.653  0.1911E+02  0.3730E+02
     -5.591  0.2058E+02  0.3858E+02
     -5.528  0.2099E+02  0.3989E+02
     -5.466  0.2045E+02  0.4116E+02
     -5.404  0.1955E+02  0.4238E+02
     -5.342  0.1902E+02  0.4357E+02
     -5.279  0.1914E+02  0.4476E+02
     -5.217  0.1969E+02  0.4598E+02
     -5.155  0.2025E+02  0.4725E+02
     -5.092  0.2057E+02  0.4853E+02
     -5.030  0.2068E+02  0.4981E+02
     -4.968  0.2073E+02  0.5111E+02
     -4.906  0.2091E+02  0.5241E+02
     -4.843  0.2135E+02  0.5374E+02
     -4.781  0.2217E+02  0.5512E+02
     -4.719  0.2348E+02  0.5658E+02
     -4.656  0.2525E+02  0.5815E+02
     -4.594  0.2713E+02  0.5984E+02
     -4.532  0.2836E+02  0.6161E+02
     -4.470  0.2831E+02  0.6337E+02
     -4.407  0.2726E+02  0.6507E+02
     -4.345  0.2634E+02  0.6671E+02
     -4.283  0.2669E+02  0.6838E+02
     -4.220  0.2837E+02  0.7014E+02
     -4.158  0.3048E+02  0.7204E+02
     -4.096  0.3203E+02  0.7404E+02
     -4.034  0.3273E+02  0.7607E+02
     -3.971  0.3296E+02  0.7813E+02
     -3.909  0.3326E+02  0.8020E+02
     -3.847  0.3378E+02  0.8230E+02
     -3.784  0.3434E+02  0.8444E+02
     -3.722  0.3456E+02  0.8660E+02
     -3.660  0.3404E+02  0.8872E+02
     -3.598  0.3244E+02  0.9074E+02
     -3.535  0.2973E+02  0.9259E+02
     -3.473  0.2633E+02  0.9423E+02
     -3.411  0.2297E+02  0.9566E+02
     -3.348  0.2019E+02  0.9692E+02
     -3.286  0.1823E+02  0.9805E+02
     -3.224  0.1719E+02  0.9912E+02
     -3.162  0.1725E+02  0.1002E+03
     -3.099  0.1864E+02  0.1014E+03
     -3.037  0.2130E+02  0.1027E+03
     -2.975  0.2456E+02  0.1042E+03
     -2.912  0.2728E+02  0.1059E+03
     -2.850  0.2848E+02  0.1077E+03
     -2.788  0.2789E+02  0.1094E+03
     -2.726  0.2605E+02  0.1110E+03
     -2.663  0.2391E+02  0.1125E+03
     -2.601  0.2236E+02  0.1139E+03
     -2.539  0.2176E+02  0.1153E+03
     -2.476  0.2194E+02  0.1167E+03
     -2.414  0.2254E+02  0.1181E+03
     -2.352  0.2314E+02  0.1195E+03
     -2.290  0.2348E+02  0.1210E+03
     -2.227  0.2360E+02  0.1224E+03
     -2.165  0.2381E+02  0.1239E+03
     -2.103  0.2444E+02  0.1254E+03
     -2.040  0.2554E+02  0.1270E+03
     -1.978  0.2688E+02  0.1287E+03
     -1.916  0.2792E+02  0.1304E+03
     -1.854  0.2806E+02  0.1322E+03
     -1.791  0.2712E+02  0.1339E+03
     -1.729  0.2563E+02  0.1355E+03
     -1.667  0.2432E+02  0.1370E+03
     -1.604  0.2345E+02  0.1384E+03
     -1.542  0.2277E+02  0.1399E+03
     -1.480  0.2218E+02  0.1412E+03
     -1.418  0.2202E+02  0.1426E+03
     -1.355  0.2267E+02  0.1440E+03
     -1.293  0.2404E+02  0.1455E+03
     -1.231  0.2568E+02  0.1471E+03
     -1.168  0.2733E+02  0.1488E+03
     -1.106  0.2905E+02  0.1506E+03
     -1.044  0.3079E+02  0.1526E+03
     -0.982  0.3220E+02  0.1546E+03
     -0.919  0.3296E+02  0.1566E+03
     -0.857  0.3292E+02  0.1587E+03
     -0.795  0.3188E+02  0.1607E+03
     -0.732  0.2962E+02  0.1625E+03
     -0.670  0.2636E+02  0.1641E+03
     -0.608  0.2285E+02  0.1656E+03
     -0.546  0.1973E+02  0.1668E+03
     -0.483  0.1702E+02  0.1679E+03
     -0.421  0.1440E+02  0.1687E+03
     -0.359  0.1181E+02  0.1695E+03
     -0.296  0.9513E+01  0.1701E+03
     -0.234  0.7774E+01  0.1706E+03
     -0.172  0.6683E+01  0.1710E+03
     -0.110  0.6223E+01  0.1714E+03
     -0.047  0.6233E+01  0.1718E+03
      0.015  0.6314E+01  0.1721E+03
      0.077  0.6036E+01  0.1725E+03
      0.140  0.5381E+01  0.1729E+03
      0.202  0.4796E+01  0.1732E+03
      0.264  0.4672E+01  0.1734E+03
      0.326  0.4870E+01  0.1737E+03
      0.389  0.4888E+01  0.1741E+03
      0.451  0.4446E+01  0.1743E+03
      0.513  0.3809E+01  0.1746E+03
      0.576  0.3536E+01  0.1748E+03
      0.638  0.3970E+01  0.1750E+03
      0.700  0.4980E+01  0.1753E+03
      0.762  0.6114E+01  0.1757E+03
      0.825  0.6894E+01  0.1762E+03
      0.887  0.7049E+01  0.1766E+03
      0.949  0.6601E+01  0.1770E+03
      1.012  0.5820E+01  0.1774E+03
      1.074  0.5022E+01  0.1777E+03
      1.136  0.4387E+01  0.1780E+03
      1.198  0.3955E+01  0.1782E+03
      1.261  0.3733E+01  0.1784E+03
      1.323  0.3749E+01  0.1787E+03
      1.385  0.4002E+01  0.1789E+03
      1.448  0.4402E+01  0.1792E+03
      1.510  0.4806E+01  0.1795E+03
      1.572  0.5145E+01  0.1798E+03
      1.634  0.5485E+01  0.1802E+03
      1.697  0.5872E+01  0.1805E+03
      1.759  0.6119E+01  0.1809E+03
      1.821  0.5905E+01  0.1813E+03
      1.884  0.5185E+01  0.1816E+03
      1.946  0.4392E+01  0.1819E+03
      2.008  0.4115E+01  0.1821E+03
      2.070  0.4563E+01  0.1824E+03
      2.133  0.5364E+01  0.1827E+03
      2.195  0.5909E+01  0.1831E+03
      2.257  0.5894E+01  0.1835E+03
      2.320  0.5530E+01  0.1838E+03
      2.382  0.5218E+01  0.1841E+03
      2.444  0.5052E+01  0.1845E+03
      2.506  0.4745E+01  0.1848E+03
      2.569  0.4046E+01  0.1850E+03
      2.631  0.3176E+01  0.1852E+03
      2.693  0.2750E+01  0.1854E+03
      2.756  0.3263E+01  0.1856E+03
      2.818  0.4620E+01  0.1859E+03
      2.880  0.6111E+01  0.1862E+03
      2.943  0.6862E+01  0.1867E+03
      3.005  0.6461E+01  0.1871E+03
      3.067  0.5231E+01  0.1874E+03
      3.129  0.3918E+01  0.1876E+03
      3.192  0.3130E+01  0.1878E+03
      3.254  0.3026E+01  0.1880E+03
      3.316  0.3381E+01  0.1882E+03
      3.379  0.3827E+01  0.1885E+03
      3.441  0.4099E+01  0.1887E+03
      3.503  0.4122E+01  0.1890E+03
      3.565  0.3918E+01  0.1892E+03
      3.628  0.3524E+01  0.1895E+03
      3.690  0.3111E+01  0.1896E+03
      3.752  0.3023E+01  0.1898E+03
      3.815  0.3482E+01  0.1901E+03
      3.877  0.4241E+01  0.1903E+03
      3.939  0.4707E+01  0.1906E+03
      4.001  0.4445E+01  0.1909E+03
      4.064  0.3534E+01  0.1911E+03
      4.126  0.2470E+01  0.1913E+03
      4.188  0.1756E+01  0.1914E+03
      4.251  0.1567E+01  0.1915E+03
      4.313  0.1737E+01  0.1916E+03
      4.375  0.1953E+01  0.1917E+03
      4.437  0.1943E+01  0.1918E+03
      4.500  0.1598E+01  0.1919E+03
      4.562  0.1023E+01  0.1920E+03
      4.624  0.4556E+00  0.1920E+03
      4.687  0.8253E-01  0.1920E+03
      4.749 -0.6753E-01  0.1920E+03
      4.811 -0.7957E-01  0.1920E+03
      4.873 -0.4770E-01  0.1920E+03
      4.936 -0.2026E-01  0.1920E+03
      4.998 -0.6596E-02  0.1920E+03
      5.060 -0.1698E-02  0.1920E+03
      5.123 -0.3509E-03  0.1920E+03
      5.185 -0.5873E-04  0.1920E+03
      5.247 -0.8002E-05  0.1920E+03
      5.309 -0.8904E-06  0.1920E+03
      5.372 -0.8111E-07  0.1920E+03
      5.434 -0.6056E-08  0.1920E+03
      5.496 -0.3711E-09  0.1920E+03
      5.559 -0.1868E-10  0.1920E+03
      5.621 -0.7729E-12  0.1920E+03
      5.683 -0.2644E-13  0.1920E+03
      5.745 -0.5941E-15  0.1920E+03
      5.808  0.0000E+00  0.1920E+03
      5.870  0.0000E+00  0.1920E+03
      5.932  0.0000E+00  0.1920E+03
      5.995  0.0000E+00  0.1920E+03
      6.057  0.0000E+00  0.1920E+03
      6.119  0.0000E+00  0.1920E+03
      6.181  0.0000E+00  0.1920E+03
      6.244  0.0000E+00  0.1920E+03
      6.306  0.0000E+00  0.1920E+03
      6.368  0.0000E+00  0.1920E+03
      6.431  0.0000E+00  0.1920E+03
      6.493  0.0000E+00  0.1920E+03
