<?xml version="1.0" encoding="ISO-8859-1"?>
<modeling>
 <generator>
  <i name="program" type="string">vasp </i>
  <i name="version" type="string">5.4.4.18Apr17-6-g9f103f2a35  </i>
  <i name="subversion" type="string">(build Apr 28 2017 10:53:45) complex            parallel </i>
  <i name="platform" type="string">LinuxIFC </i>
  <i name="date" type="string">2020 02 16 </i>
  <i name="time" type="string">21:13:54 </i>
 </generator>
 <incar>
  <i type="string" name="PREC">normal</i>
  <i type="int" name="ISPIN">     1</i>
  <i type="int" name="IBRION">     2</i>
  <i name="EDIFF">      0.00001000</i>
  <i name="EDIFFG">     -0.05000000</i>
  <i type="int" name="NSW">     0</i>
  <i name="ENCUT">    350.00000000</i>
  <i type="logical" name="LWAVE"> F  </i>
  <i type="logical" name="LCHARG"> F  </i>
  <v type="int" name="KPOINT_BSE">    -1     0     0     0</v>
  <i type="string" name="GGA"> PE</i>
  <i type="int" name="IDIPOL">     3</i>
 </incar>
 <structure name="primitive_cell" >
  <crystal>
   <varray name="basis" >
    <v>       5.55785930       0.00000000       0.00000000 </v>
    <v>       2.77892965       4.81324734       0.00000000 </v>
    <v>       0.00000000       0.00000000      30.80695967 </v>
   </varray>
   <i name="volume">    824.12780743 </i>
   <varray name="rec_basis" >
    <v>       0.17992539      -0.10387997       0.00000000 </v>
    <v>       0.00000000       0.20775994       0.00000000 </v>
    <v>       0.00000000       0.00000000       0.03246020 </v>
   </varray>
  </crystal>
  <varray name="positions" >
   <v>       0.00000000       0.00000000       0.38952237 </v>
   <v>       0.00000000      -0.50000000       0.38952237 </v>
   <v>      -0.50000000      -0.50000000       0.38952237 </v>
   <v>      -0.50000000       0.00000000       0.38952237 </v>
   <v>       0.16666667       0.16666667       0.46468540 </v>
   <v>       0.16666667      -0.33333333       0.46468540 </v>
   <v>      -0.33333333       0.16666667       0.46468540 </v>
   <v>      -0.33333333      -0.33333333       0.46468540 </v>
   <v>      -0.16666667      -0.16666667      -0.46079704 </v>
   <v>      -0.16666667       0.33333333      -0.46079704 </v>
   <v>       0.33333333      -0.16666667      -0.46079704 </v>
   <v>       0.33333333       0.33333333      -0.46079704 </v>
   <v>       0.00000000       0.00000000      -0.38513957 </v>
   <v>      -0.50000000       0.00000000      -0.38513957 </v>
   <v>       0.00000000      -0.50000000      -0.38513957 </v>
   <v>      -0.50000000      -0.50000000      -0.38513957 </v>
  </varray>
 </structure>
 <varray name="primitive_index" >
  <v type="int" >        1 </v>
  <v type="int" >        3 </v>
  <v type="int" >        4 </v>
  <v type="int" >        2 </v>
  <v type="int" >        5 </v>
  <v type="int" >        7 </v>
  <v type="int" >        6 </v>
  <v type="int" >        8 </v>
  <v type="int" >       11 </v>
  <v type="int" >        9 </v>
  <v type="int" >       12 </v>
  <v type="int" >       10 </v>
  <v type="int" >       13 </v>
  <v type="int" >       14 </v>
  <v type="int" >       15 </v>
  <v type="int" >       16 </v>
 </varray>
 <kpoints>
  <generation param="Monkhorst-Pack">
   <v type="int" name="divisions">       8        8        1 </v>
   <v name="usershift">      0.00000000       0.00000000       0.00000000 </v>
   <v name="genvec1">      0.12500000       0.00000000       0.00000000 </v>
   <v name="genvec2">      0.00000000       0.12500000       0.00000000 </v>
   <v name="genvec3">      0.00000000       0.00000000       1.00000000 </v>
   <v name="shift">      0.50000000       0.50000000       0.00000000 </v>
  </generation>
  <varray name="kpointlist" >
   <v>       0.06250000       0.06250000       0.00000000 </v>
   <v>       0.00000000       0.06250000       0.00000000 </v>
   <v>       0.18750000       0.06250000       0.00000000 </v>
   <v>       0.12500000       0.18750000       0.00000000 </v>
   <v>      -0.06250000       0.12500000       0.00000000 </v>
   <v>       0.31250000       0.06250000       0.00000000 </v>
   <v>       0.25000000       0.31250000       0.00000000 </v>
   <v>      -0.06250000       0.25000000       0.00000000 </v>
   <v>       0.43750000       0.06250000       0.00000000 </v>
   <v>       0.37500000       0.43750000       0.00000000 </v>
   <v>      -0.06250000       0.37500000       0.00000000 </v>
   <v>      -0.43750000       0.06250000       0.00000000 </v>
   <v>       0.50000000      -0.43750000       0.00000000 </v>
   <v>      -0.06250000       0.50000000       0.00000000 </v>
   <v>      -0.31250000       0.06250000       0.00000000 </v>
   <v>      -0.37500000      -0.31250000       0.00000000 </v>
   <v>      -0.06250000      -0.37500000       0.00000000 </v>
   <v>      -0.18750000       0.06250000       0.00000000 </v>
   <v>      -0.25000000      -0.18750000       0.00000000 </v>
   <v>      -0.06250000      -0.25000000       0.00000000 </v>
   <v>      -0.06250000       0.06250000       0.00000000 </v>
   <v>      -0.12500000      -0.06250000       0.00000000 </v>
   <v>       0.18750000       0.18750000       0.00000000 </v>
   <v>       0.00000000       0.18750000       0.00000000 </v>
   <v>       0.31250000       0.18750000       0.00000000 </v>
   <v>       0.12500000       0.31250000       0.00000000 </v>
   <v>      -0.18750000       0.12500000       0.00000000 </v>
   <v>       0.43750000       0.18750000       0.00000000 </v>
   <v>       0.25000000       0.43750000       0.00000000 </v>
   <v>      -0.18750000       0.25000000       0.00000000 </v>
   <v>      -0.43750000       0.18750000       0.00000000 </v>
   <v>       0.37500000      -0.43750000       0.00000000 </v>
   <v>      -0.18750000       0.37500000       0.00000000 </v>
   <v>      -0.31250000       0.18750000       0.00000000 </v>
   <v>       0.50000000      -0.31250000       0.00000000 </v>
   <v>      -0.18750000       0.50000000       0.00000000 </v>
   <v>      -0.18750000       0.18750000       0.00000000 </v>
   <v>      -0.37500000      -0.18750000       0.00000000 </v>
   <v>       0.31250000       0.31250000       0.00000000 </v>
   <v>       0.00000000       0.31250000       0.00000000 </v>
   <v>       0.43750000       0.31250000       0.00000000 </v>
   <v>       0.12500000       0.43750000       0.00000000 </v>
   <v>      -0.31250000       0.12500000       0.00000000 </v>
   <v>      -0.43750000       0.31250000       0.00000000 </v>
   <v>       0.25000000      -0.43750000       0.00000000 </v>
   <v>      -0.31250000       0.25000000       0.00000000 </v>
   <v>      -0.31250000       0.31250000       0.00000000 </v>
   <v>       0.37500000      -0.31250000       0.00000000 </v>
   <v>       0.43750000       0.43750000       0.00000000 </v>
   <v>       0.00000000       0.43750000       0.00000000 </v>
   <v>      -0.43750000       0.43750000       0.00000000 </v>
   <v>       0.12500000      -0.43750000       0.00000000 </v>
  </varray>
  <varray name="weights" >
   <v>       0.01041667 </v>
   <v>       0.02083333 </v>
   <v>       0.02083333 </v>
   <v>       0.02083333 </v>
   <v>       0.02083333 </v>
   <v>       0.02083333 </v>
   <v>       0.02083333 </v>
   <v>       0.02083333 </v>
   <v>       0.02083333 </v>
   <v>       0.02083333 </v>
   <v>       0.02083333 </v>
   <v>       0.02083333 </v>
   <v>       0.02083333 </v>
   <v>       0.02083333 </v>
   <v>       0.02083333 </v>
   <v>       0.02083333 </v>
   <v>       0.02083333 </v>
   <v>       0.02083333 </v>
   <v>       0.02083333 </v>
   <v>       0.02083333 </v>
   <v>       0.01041667 </v>
   <v>       0.02083333 </v>
   <v>       0.01041667 </v>
   <v>       0.02083333 </v>
   <v>       0.02083333 </v>
   <v>       0.02083333 </v>
   <v>       0.02083333 </v>
   <v>       0.02083333 </v>
   <v>       0.02083333 </v>
   <v>       0.02083333 </v>
   <v>       0.02083333 </v>
   <v>       0.02083333 </v>
   <v>       0.02083333 </v>
   <v>       0.02083333 </v>
   <v>       0.02083333 </v>
   <v>       0.02083333 </v>
   <v>       0.01041667 </v>
   <v>       0.02083333 </v>
   <v>       0.01041667 </v>
   <v>       0.02083333 </v>
   <v>       0.02083333 </v>
   <v>       0.02083333 </v>
   <v>       0.02083333 </v>
   <v>       0.02083333 </v>
   <v>       0.02083333 </v>
   <v>       0.02083333 </v>
   <v>       0.01041667 </v>
   <v>       0.02083333 </v>
   <v>       0.01041667 </v>
   <v>       0.02083333 </v>
   <v>       0.01041667 </v>
   <v>       0.02083333 </v>
  </varray>
 </kpoints>
 <parameters>
  <separator name="general" >
   <i type="string" name="SYSTEM">unknown system</i>
   <i type="logical" name="LCOMPAT"> F  </i>
  </separator>
  <separator name="electronic" >
   <i type="string" name="PREC">normal</i>
   <i name="ENMAX">    350.00000000</i>
   <i name="ENAUG">    358.96600000</i>
   <i name="EDIFF">      0.00001000</i>
   <i type="int" name="IALGO">    38</i>
   <i type="int" name="IWAVPR">    10</i>
   <i type="int" name="NBANDS">    96</i>
   <i name="NELECT">    160.00000000</i>
   <i type="int" name="TURBO">     0</i>
   <i type="int" name="IRESTART">     0</i>
   <i type="int" name="NREBOOT">     0</i>
   <i type="int" name="NMIN">     0</i>
   <i name="EREF">      0.00000000</i>
   <separator name="electronic smearing" >
    <i type="int" name="ISMEAR">     1</i>
    <i name="SIGMA">      0.20000000</i>
    <i name="KSPACING">      0.50000000</i>
    <i type="logical" name="KGAMMA"> T  </i>
   </separator>
   <separator name="electronic projectors" >
    <i type="logical" name="LREAL"> F  </i>
    <v name="ROPT">      0.00000000      0.00000000      0.00000000</v>
    <i type="int" name="LMAXPAW">  -100</i>
    <i type="int" name="LMAXMIX">     2</i>
    <i type="logical" name="NLSPLINE"> F  </i>
   </separator>
   <separator name="electronic startup" >
    <i type="int" name="ISTART">     0</i>
    <i type="int" name="ICHARG">     2</i>
    <i type="int" name="INIWAV">     1</i>
   </separator>
   <separator name="electronic spin" >
    <i type="int" name="ISPIN">     1</i>
    <i type="logical" name="LNONCOLLINEAR"> F  </i>
    <v name="MAGMOM">      1.00000000      1.00000000      1.00000000      1.00000000      1.00000000      1.00000000      1.00000000      1.00000000      1.00000000      1.00000000      1.00000000      1.00000000      1.00000000      1.00000000      1.00000000      1.00000000</v>
    <i name="NUPDOWN">     -1.00000000</i>
    <i type="logical" name="LSORBIT"> F  </i>
    <v name="SAXIS">      0.00000000      0.00000000      1.00000000</v>
    <i type="logical" name="LSPIRAL"> F  </i>
    <v name="QSPIRAL">      0.00000000      0.00000000      0.00000000</v>
    <i type="logical" name="LZEROZ"> F  </i>
   </separator>
   <separator name="electronic exchange-correlation" >
    <i type="logical" name="LASPH"> F  </i>
    <i type="logical" name="LMETAGGA"> F  </i>
   </separator>
   <separator name="electronic convergence" >
    <i type="int" name="NELM">    60</i>
    <i type="int" name="NELMDL">    -5</i>
    <i type="int" name="NELMIN">     2</i>
    <i name="ENINI">    350.00000000</i>
    <separator name="electronic convergence detail" >
     <i type="logical" name="LDIAG"> T  </i>
     <i type="logical" name="LSUBROT"> F  </i>
     <i name="WEIMIN">      0.00000000</i>
     <i name="EBREAK">      0.00000003</i>
     <i name="DEPER">      0.30000000</i>
     <i type="int" name="NRMM">     4</i>
     <i name="TIME">      0.40000000</i>
    </separator>
   </separator>
   <separator name="electronic mixer" >
    <i name="AMIX">      0.40000000</i>
    <i name="BMIX">      1.00000000</i>
    <i name="AMIN">      0.10000000</i>
    <i name="AMIX_MAG">      1.60000000</i>
    <i name="BMIX_MAG">      1.00000000</i>
    <separator name="electronic mixer details" >
     <i type="int" name="IMIX">     4</i>
     <i type="logical" name="MIXFIRST"> F  </i>
     <i type="int" name="MAXMIX">   -45</i>
     <i name="WC">    100.00000000</i>
     <i type="int" name="INIMIX">     1</i>
     <i type="int" name="MIXPRE">     1</i>
     <i type="int" name="MREMOVE">     5</i>
    </separator>
   </separator>
   <separator name="electronic dipolcorrection" >
    <i type="logical" name="LDIPOL"> F  </i>
    <i type="logical" name="LMONO"> F  </i>
    <i type="int" name="IDIPOL">     3</i>
    <i name="EPSILON">      1.00000000</i>
    <v name="DIPOL">   -100.00000000   -100.00000000   -100.00000000</v>
    <i name="EFIELD">      0.00000000</i>
   </separator>
  </separator>
  <separator name="grids" >
   <i type="int" name="NGX">    28</i>
   <i type="int" name="NGY">    28</i>
   <i type="int" name="NGZ">   144</i>
   <i type="int" name="NGXF">    56</i>
   <i type="int" name="NGYF">    56</i>
   <i type="int" name="NGZF">   288</i>
   <i type="logical" name="ADDGRID"> F  </i>
  </separator>
  <separator name="ionic" >
   <i type="int" name="NSW">     0</i>
   <i type="int" name="IBRION">    -1</i>
   <i type="int" name="MDALGO">     0</i>
   <i type="int" name="ISIF">     2</i>
   <i name="PSTRESS">      0.00000000</i>
   <i name="EDIFFG">     -0.05000000</i>
   <i type="int" name="NFREE">     1</i>
   <i name="POTIM">      0.50000000</i>
   <i name="SMASS">     -3.00000000</i>
   <i name="SCALEE">      1.00000000</i>
  </separator>
  <separator name="ionic md" >
   <i name="TEBEG">      0.00010000</i>
   <i name="TEEND">      0.00010000</i>
   <i type="int" name="NBLOCK">     1</i>
   <i type="int" name="KBLOCK">     1</i>
   <i type="int" name="NPACO">   256</i>
   <i name="APACO">     16.00000000</i>
  </separator>
  <separator name="symmetry" >
   <i type="int" name="ISYM">     2</i>
   <i name="SYMPREC">      0.00001000</i>
  </separator>
  <separator name="dos" >
   <i type="int" name="LORBIT">     0</i>
   <v name="RWIGS">     -1.00000000     -1.00000000     -1.00000000</v>
   <i type="int" name="NEDOS">   301</i>
   <i name="EMIN">     10.00000000</i>
   <i name="EMAX">    -10.00000000</i>
   <i name="EFERMI">      0.00000000</i>
  </separator>
  <separator name="writing" >
   <i type="int" name="NWRITE">     2</i>
   <i type="logical" name="LWAVE"> F  </i>
   <i type="logical" name="LDOWNSAMPLE"> F  </i>
   <i type="logical" name="LCHARG"> F  </i>
   <i type="logical" name="LPARD"> F  </i>
   <i type="logical" name="LVTOT"> F  </i>
   <i type="logical" name="LVHAR"> F  </i>
   <i type="logical" name="LELF"> F  </i>
   <i type="logical" name="LOPTICS"> F  </i>
   <v name="STM">      0.00000000      0.00000000      0.00000000      0.00000000      0.00000000      0.00000000      0.00000000</v>
  </separator>
  <separator name="performance" >
   <i type="int" name="NPAR">    24</i>
   <i type="int" name="NSIM">     4</i>
   <i type="int" name="NBLK">    -1</i>
   <i type="logical" name="LPLANE"> T  </i>
   <i type="logical" name="LSCALAPACK"> T  </i>
   <i type="logical" name="LSCAAWARE"> F  </i>
   <i type="logical" name="LSCALU"> F  </i>
   <i type="logical" name="LASYNC"> F  </i>
   <i type="logical" name="LORBITALREAL"> F  </i>
  </separator>
  <separator name="miscellaneous" >
   <i type="int" name="IDIOT">     3</i>
   <i type="int" name="ISPECIAL">     0</i>
   <i type="logical" name="LMUSIC"> F  </i>
   <v name="POMASS">    192.22000000    195.08000000    196.96600000</v>
   <v name="DARWINR">      0.00000000      0.00000000      0.00000000</v>
   <v name="DARWINV">      1.00000000      1.00000000      1.00000000</v>
   <i type="logical" name="LCORR"> T  </i>
  </separator>
  <i type="logical" name="GGA_COMPAT"> T  </i>
  <i type="logical" name="LBERRY"> F  </i>
  <i type="int" name="ICORELEVEL">     0</i>
  <i type="logical" name="LDAU"> F  </i>
  <i type="int" name="I_CONSTRAINED_M">     0</i>
  <separator name="electronic exchange-correlation" >
   <i type="string" name="GGA">PE</i>
   <i type="int" name="VOSKOWN">     0</i>
   <i type="logical" name="LHFCALC"> F  </i>
   <i type="string" name="PRECFOCK"></i>
   <i type="logical" name="LSYMGRAD"> F  </i>
   <i type="logical" name="LHFONE"> F  </i>
   <i type="logical" name="LRHFCALC"> F  </i>
   <i type="logical" name="LTHOMAS"> F  </i>
   <i type="logical" name="LMODELHF"> F  </i>
   <i name="ENCUT4O">     -1.00000000</i>
   <i type="int" name="EXXOEP">     0</i>
   <i type="int" name="FOURORBIT">     0</i>
   <i name="AEXX">      0.00000000</i>
   <i name="HFALPHA">      0.00000000</i>
   <i name="MCALPHA">      0.00000000</i>
   <i name="ALDAX">      1.00000000</i>
   <i name="AGGAX">      1.00000000</i>
   <i name="ALDAC">      1.00000000</i>
   <i name="AGGAC">      1.00000000</i>
   <i type="int" name="NKREDX">     1</i>
   <i type="int" name="NKREDY">     1</i>
   <i type="int" name="NKREDZ">     1</i>
   <i type="logical" name="SHIFTRED"> F  </i>
   <i type="logical" name="ODDONLY"> F  </i>
   <i type="logical" name="EVENONLY"> F  </i>
   <i type="int" name="LMAXFOCK">     0</i>
   <i type="int" name="NMAXFOCKAE">     0</i>
   <i type="logical" name="LFOCKAEDFT"> F  </i>
   <i name="HFSCREEN">      0.00000000</i>
   <i name="HFSCREENC">      0.00000000</i>
   <i type="int" name="NBANDSGWLOW">     0</i>
  </separator>
  <separator name="vdW DFT" >
   <i type="logical" name="LUSE_VDW"> F  </i>
   <i name="Zab_VDW">     -0.84910000</i>
   <i name="PARAM1">      0.12340000</i>
   <i name="PARAM2">      1.00000000</i>
   <i name="PARAM3">      0.00000000</i>
  </separator>
  <separator name="model GW" >
   <i type="int" name="MODEL_GW">     0</i>
   <i name="MODEL_EPS0">     30.90479278</i>
   <i name="MODEL_ALPHA">      1.00000000</i>
  </separator>
  <separator name="linear response parameters" >
   <i type="logical" name="LEPSILON"> F  </i>
   <i type="logical" name="LRPA"> F  </i>
   <i type="logical" name="LNABLA"> F  </i>
   <i type="logical" name="LVEL"> F  </i>
   <i type="int" name="KINTER">     0</i>
   <i name="CSHIFT">      0.10000000</i>
   <i name="OMEGAMAX">     -1.00000000</i>
   <i name="DEG_THRESHOLD">      0.00200000</i>
   <i name="RTIME">     -0.10000000</i>
   <i name="WPLASMAI">      0.00000000</i>
   <v name="DFIELD">      0.00000000      0.00000000      0.00000000</v>
   <v name="WPLASMA">      0.00000000      0.00000000      0.00000000      0.00000000      0.00000000      0.00000000      0.00000000      0.00000000      0.00000000</v>
  </separator>
  <separator name="orbital magnetization" >
   <i type="logical" name="NUCIND"> F  </i>
   <v name="MAGPOS">      0.00000000      0.00000000      0.00000000</v>
   <i type="logical" name="LNICSALL"> T  </i>
   <i type="logical" name="ORBITALMAG"> F  </i>
   <i type="logical" name="LMAGBLOCH"> F  </i>
   <i type="logical" name="LCHIMAG"> F  </i>
   <i type="logical" name="LGAUGE"> T  </i>
   <i type="int" name="MAGATOM">     0</i>
   <v name="MAGDIPOL">      0.00000000      0.00000000      0.00000000</v>
   <v name="AVECCONST">      0.00000000      0.00000000      0.00000000</v>
  </separator>
  <separator name="response functions" >
   <i type="logical" name="LADDER"> F  </i>
   <i type="logical" name="LRPAFORCE"> F  </i>
   <i type="logical" name="LFXC"> F  </i>
   <i type="logical" name="LHARTREE"> T  </i>
   <i type="int" name="IBSE">     0</i>
   <v type="int" name="KPOINT">    -1     0     0     0</v>
   <i type="logical" name="LTCTE"> F  </i>
   <i type="logical" name="LTETE"> F  </i>
   <i type="logical" name="LTRIPLET"> F  </i>
   <i type="logical" name="LFXCEPS"> F  </i>
   <i type="logical" name="LFXHEG"> F  </i>
   <i type="int" name="NATURALO">     2</i>
   <i type="logical" name="L2ORDER"> F  </i>
   <i type="logical" name="LMP2LT"> F  </i>
   <i type="logical" name="LUSEW"> F  </i>
   <i name="ENCUTGW">     -2.00000000</i>
   <i name="ENCUTGWSOFT">     -2.00000000</i>
   <i name="ENCUTLF">     -1.00000000</i>
   <i type="int" name="LMAXMP2">    -1</i>
   <i name="SCISSOR">      0.00000000</i>
   <i type="int" name="NOMEGA">     0</i>
   <i type="int" name="NOMEGAR">     0</i>
   <i type="int" name="NBANDSGW">    -1</i>
   <i type="int" name="NBANDSO">    -1</i>
   <i type="int" name="NBANDSV">    -1</i>
   <i type="int" name="NELM">     1</i>
   <i type="int" name="NELMHF">     1</i>
   <i type="int" name="DIM">     3</i>
   <i type="int" name="ANTIRES">     0</i>
   <i name="OMEGAMAX">    -30.00000000</i>
   <i name="OMEGAMIN">    -30.00000000</i>
   <i name="OMEGATL">   -200.00000000</i>
   <i type="int" name="OMEGAGRID">   140</i>
   <i name="CSHIFT">     -0.10000000</i>
   <i type="logical" name="SELFENERGY"> F  </i>
   <i type="logical" name="LSPECTRAL"> F  </i>
   <i type="logical" name="LSPECTRALGW"> F  </i>
   <i type="logical" name="LSINGLES"> F  </i>
   <i type="logical" name="LFERMIGW"> F  </i>
   <i type="logical" name="ODDONLYGW"> F  </i>
   <i type="logical" name="EVENONLYGW"> F  </i>
   <i type="int" name="NKREDLFX">     1</i>
   <i type="int" name="NKREDLFY">     1</i>
   <i type="int" name="NKREDLFZ">     1</i>
   <i type="int" name="MAXMEM">  2800</i>
   <i type="int" name="TELESCOPE">     0</i>
   <i type="int" name="TAUPAR">     1</i>
   <i type="int" name="OMEGAPAR">    -1</i>
   <i name="LAMBDA">      1.00000000</i>
  </separator>
  <separator name="External order field" >
   <i name="OFIELD_KAPPA">      0.00000000</i>
   <v name="OFIELD_K">      0.00000000      0.00000000      0.00000000</v>
   <i name="OFIELD_Q6_NEAR">      0.00000000</i>
   <i name="OFIELD_Q6_FAR">      0.00000000</i>
   <i name="OFIELD_A">      0.00000000</i>
  </separator>
 </parameters>
 <atominfo>
  <atoms>      16 </atoms>
  <types>       3 </types>
  <array name="atoms" >
   <dimension dim="1">ion</dimension>
   <field type="string">element</field>
   <field type="int">atomtype</field>
   <set>
    <rc><c>Ir</c><c>   1</c></rc>
    <rc><c>Pt</c><c>   2</c></rc>
    <rc><c>Pt</c><c>   2</c></rc>
    <rc><c>Pt</c><c>   2</c></rc>
    <rc><c>Pt</c><c>   2</c></rc>
    <rc><c>Pt</c><c>   2</c></rc>
    <rc><c>Pt</c><c>   2</c></rc>
    <rc><c>Pt</c><c>   2</c></rc>
    <rc><c>Pt</c><c>   2</c></rc>
    <rc><c>Pt</c><c>   2</c></rc>
    <rc><c>Pt</c><c>   2</c></rc>
    <rc><c>Pt</c><c>   2</c></rc>
    <rc><c>Pt</c><c>   2</c></rc>
    <rc><c>Pt</c><c>   2</c></rc>
    <rc><c>Pt</c><c>   2</c></rc>
    <rc><c>Au</c><c>   3</c></rc>
   </set>
  </array>
  <array name="atomtypes" >
   <dimension dim="1">type</dimension>
   <field type="int">atomspertype</field>
   <field type="string">element</field>
   <field>mass</field>
   <field>valence</field>
   <field type="string">pseudopotential</field>
   <set>
    <rc><c>   1</c><c>Ir</c><c>    192.22000000</c><c>      9.00000000</c><c>  PAW_PBE Ir 06Sep2000                  </c></rc>
    <rc><c>  14</c><c>Pt</c><c>    195.08000000</c><c>     10.00000000</c><c>  PAW_PBE Pt 04Feb2005                  </c></rc>
    <rc><c>   1</c><c>Au</c><c>    196.96600000</c><c>     11.00000000</c><c>  PAW_PBE Au 04Oct2007                  </c></rc>
   </set>
  </array>
 </atominfo>
 <structure name="initialpos" >
  <crystal>
   <varray name="basis" >
    <v>       5.55785930       0.00000000       0.00000000 </v>
    <v>       2.77892965       4.81324734       0.00000000 </v>
    <v>       0.00000000       0.00000000      30.80695967 </v>
   </varray>
   <i name="volume">    824.12780743 </i>
   <varray name="rec_basis" >
    <v>       0.17992539      -0.10387997       0.00000000 </v>
    <v>       0.00000000       0.20775994       0.00000000 </v>
    <v>       0.00000000       0.00000000       0.03246020 </v>
   </varray>
  </crystal>
  <varray name="positions" >
   <v>       0.00000000       0.00000000       0.38952237 </v>
   <v>       0.50000000       0.00000000       0.38952237 </v>
   <v>       0.00000000       0.50000000       0.38952237 </v>
   <v>       0.50000000       0.50000000       0.38952237 </v>
   <v>       0.16666667       0.16666667       0.46468540 </v>
   <v>       0.66666667       0.16666667       0.46468540 </v>
   <v>       0.16666667       0.66666667       0.46468540 </v>
   <v>       0.66666667       0.66666667       0.46468540 </v>
   <v>       0.83333333       0.33333333       0.53920296 </v>
   <v>       0.33333333       0.33333333       0.53920296 </v>
   <v>       0.83333333       0.83333333       0.53920296 </v>
   <v>       0.33333333       0.83333333       0.53920296 </v>
   <v>       0.00000000       0.00000000       0.61486043 </v>
   <v>       0.50000000       0.00000000       0.61486043 </v>
   <v>       0.00000000       0.50000000       0.61486043 </v>
   <v>       0.50000000       0.50000000       0.61486043 </v>
  </varray>
  <varray name="selective"  type="logical" >
   <v type="logical" >  F  F  F </v>
   <v type="logical" >  F  F  F </v>
   <v type="logical" >  F  F  F </v>
   <v type="logical" >  F  F  F </v>
   <v type="logical" >  T  T  T </v>
   <v type="logical" >  T  T  T </v>
   <v type="logical" >  T  T  T </v>
   <v type="logical" >  T  T  T </v>
   <v type="logical" >  T  T  T </v>
   <v type="logical" >  T  T  T </v>
   <v type="logical" >  T  T  T </v>
   <v type="logical" >  T  T  T </v>
   <v type="logical" >  T  T  T </v>
   <v type="logical" >  T  T  T </v>
   <v type="logical" >  T  T  T </v>
   <v type="logical" >  T  T  T </v>
  </varray>
  <nose>
   <v>      -3.00000000       0.00000000       0.00010000       0.00010000 </v>
  </nose>
 </structure>
 <calculation>
  <scstep>
   <time name="dav">    9.05    9.05</time>
   <time name="total">    9.07    9.08</time>
   <energy>
    <i name="alphaZ">    303.52543553 </i>
    <i name="ewald">  98433.56053661 </i>
    <i name="hartreedc">-110505.05101069 </i>
    <i name="XCdc">     46.26589278 </i>
    <i name="pawpsdc">  11171.21661038 </i>
    <i name="pawaedc"> -10711.84633960 </i>
    <i name="eentropy">     -0.00807726 </i>
    <i name="bandstr">    546.64552061 </i>
    <i name="atom">  11693.69420960 </i>
    <i name="e_fr_energy">    978.00277795 </i>
    <i name="e_wo_entrp">    978.01085522 </i>
    <i name="e_0_energy">    978.00547037 </i>
   </energy>
  </scstep>
  <scstep>
   <time name="dav">   12.78   12.78</time>
   <time name="total">   12.78   12.78</time>
   <energy>
    <i name="e_fr_energy">    -38.40674404 </i>
    <i name="e_wo_entrp">    -38.40955231 </i>
    <i name="e_0_energy">    -38.40768013 </i>
   </energy>
  </scstep>
  <scstep>
   <time name="dav">   11.11   11.11</time>
   <time name="total">   11.11   11.11</time>
   <energy>
    <i name="e_fr_energy">    -96.98322325 </i>
    <i name="e_wo_entrp">    -96.95782809 </i>
    <i name="e_0_energy">    -96.97475820 </i>
   </energy>
  </scstep>
  <scstep>
   <time name="dav">   12.26   12.27</time>
   <time name="total">   12.27   12.27</time>
   <energy>
    <i name="e_fr_energy">    -98.25323469 </i>
    <i name="e_wo_entrp">    -98.22724715 </i>
    <i name="e_0_energy">    -98.24457217 </i>
   </energy>
  </scstep>
  <scstep>
   <time name="dav">   13.24   13.24</time>
   <time name="total">   13.56   13.56</time>
   <energy>
    <i name="e_fr_energy">    -98.28958184 </i>
    <i name="e_wo_entrp">    -98.26358829 </i>
    <i name="e_0_energy">    -98.28091732 </i>
   </energy>
  </scstep>
  <scstep>
   <time name="dav">   10.47   10.48</time>
   <time name="total">   10.82   10.82</time>
   <energy>
    <i name="e_fr_energy">    -94.28934562 </i>
    <i name="e_wo_entrp">    -94.26040155 </i>
    <i name="e_0_energy">    -94.27969760 </i>
   </energy>
  </scstep>
  <scstep>
   <time name="dav">   11.03   11.03</time>
   <time name="total">   11.37   11.37</time>
   <energy>
    <i name="e_fr_energy">   -118.73097830 </i>
    <i name="e_wo_entrp">   -118.73508730 </i>
    <i name="e_0_energy">   -118.73234797 </i>
   </energy>
  </scstep>
  <scstep>
   <time name="dav">   12.84   12.84</time>
   <time name="total">   13.17   13.18</time>
   <energy>
    <i name="e_fr_energy">    -95.11025119 </i>
    <i name="e_wo_entrp">    -95.07024778 </i>
    <i name="e_0_energy">    -95.09691672 </i>
   </energy>
  </scstep>
  <scstep>
   <time name="dav">   10.43   10.44</time>
   <time name="total">   10.77   10.78</time>
   <energy>
    <i name="e_fr_energy">    -94.29741192 </i>
    <i name="e_wo_entrp">    -94.26918910 </i>
    <i name="e_0_energy">    -94.28800432 </i>
   </energy>
  </scstep>
  <scstep>
   <time name="dav">   13.39   13.39</time>
   <time name="total">   13.73   13.73</time>
   <energy>
    <i name="e_fr_energy">    -93.32992691 </i>
    <i name="e_wo_entrp">    -93.32602674 </i>
    <i name="e_0_energy">    -93.32862685 </i>
   </energy>
  </scstep>
  <scstep>
   <time name="dav">   12.15   12.15</time>
   <time name="total">   12.48   12.48</time>
   <energy>
    <i name="e_fr_energy">    -92.22638637 </i>
    <i name="e_wo_entrp">    -92.19139962 </i>
    <i name="e_0_energy">    -92.21472412 </i>
   </energy>
  </scstep>
  <scstep>
   <time name="dav">   10.52   10.52</time>
   <time name="total">   10.86   10.87</time>
   <energy>
    <i name="e_fr_energy">    -92.18440666 </i>
    <i name="e_wo_entrp">    -92.13157184 </i>
    <i name="e_0_energy">    -92.16679505 </i>
   </energy>
  </scstep>
  <scstep>
   <time name="dav">   12.11   12.11</time>
   <time name="total">   12.45   12.45</time>
   <energy>
    <i name="e_fr_energy">    -92.06366819 </i>
    <i name="e_wo_entrp">    -92.02865120 </i>
    <i name="e_0_energy">    -92.05199586 </i>
   </energy>
  </scstep>
  <scstep>
   <time name="dav">   13.82   13.82</time>
   <time name="total">   14.15   14.16</time>
   <energy>
    <i name="e_fr_energy">    -92.06519609 </i>
    <i name="e_wo_entrp">    -92.02732606 </i>
    <i name="e_0_energy">    -92.05257275 </i>
   </energy>
  </scstep>
  <scstep>
   <time name="dav">   11.14   11.15</time>
   <time name="total">   11.48   11.48</time>
   <energy>
    <i name="e_fr_energy">    -92.07145802 </i>
    <i name="e_wo_entrp">    -92.03482899 </i>
    <i name="e_0_energy">    -92.05924834 </i>
   </energy>
  </scstep>
  <scstep>
   <time name="dav">   10.71   10.71</time>
   <time name="total">   11.05   11.05</time>
   <energy>
    <i name="e_fr_energy">    -92.04029765 </i>
    <i name="e_wo_entrp">    -92.00279075 </i>
    <i name="e_0_energy">    -92.02779535 </i>
   </energy>
  </scstep>
  <scstep>
   <time name="dav">   12.58   12.58</time>
   <time name="total">   12.92   12.93</time>
   <energy>
    <i name="e_fr_energy">    -92.03456094 </i>
    <i name="e_wo_entrp">    -91.99402434 </i>
    <i name="e_0_energy">    -92.02104874 </i>
   </energy>
  </scstep>
  <scstep>
   <time name="dav">   10.16   10.16</time>
   <time name="total">   10.50   10.50</time>
   <energy>
    <i name="e_fr_energy">    -92.03360522 </i>
    <i name="e_wo_entrp">    -91.99305071 </i>
    <i name="e_0_energy">    -92.02008705 </i>
   </energy>
  </scstep>
  <scstep>
   <time name="dav">   11.61   11.61</time>
   <time name="total">   11.95   11.95</time>
   <energy>
    <i name="e_fr_energy">    -92.03345049 </i>
    <i name="e_wo_entrp">    -91.99304957 </i>
    <i name="e_0_energy">    -92.01998352 </i>
   </energy>
  </scstep>
  <scstep>
   <time name="dav">   10.66   10.66</time>
   <time name="total">   11.00   11.00</time>
   <energy>
    <i name="e_fr_energy">    -92.03343899 </i>
    <i name="e_wo_entrp">    -91.99325330 </i>
    <i name="e_0_energy">    -92.02004376 </i>
   </energy>
  </scstep>
  <scstep>
   <time name="dav">   10.09   10.09</time>
   <time name="total">   10.43   10.43</time>
   <energy>
    <i name="e_fr_energy">    -92.03340349 </i>
    <i name="e_wo_entrp">    -91.99321278 </i>
    <i name="e_0_energy">    -92.02000659 </i>
   </energy>
  </scstep>
  <scstep>
   <time name="dav">    9.30    9.30</time>
   <time name="total">    9.64    9.64</time>
   <energy>
    <i name="e_fr_energy">    -92.03337345 </i>
    <i name="e_wo_entrp">    -91.99315457 </i>
    <i name="e_0_energy">    -92.01996716 </i>
   </energy>
  </scstep>
  <scstep>
   <time name="dav">    6.99    6.99</time>
   <time name="total">    7.01    7.02</time>
   <energy>
    <i name="alphaZ">    303.52543553 </i>
    <i name="ewald">  98433.56053661 </i>
    <i name="hartreedc">-110336.30870841 </i>
    <i name="XCdc">     40.60319920 </i>
    <i name="pawpsdc">  14190.80986219 </i>
    <i name="pawaedc"> -13775.79821299 </i>
    <i name="eentropy">     -0.04016613 </i>
    <i name="bandstr">   -642.07953236 </i>
    <i name="atom">  11693.69420960 </i>
    <i name="e_fr_energy">    -92.03337676 </i>
    <i name="e_wo_entrp">    -91.99321063 </i>
    <i name="e_0_energy">    -92.01998805 </i>
   </energy>
  </scstep>
  <dipole>
   <v name="dipole">      0.00000000       0.00000000      -0.01963952 </v>
   <i name="Tr[quadrupol]">   -966.62182838 </i>
   <i name="Echarged">      0.00000000 </i>
   <i name="Edipol_quadrupol">      0.00000000 </i>
   <i name="Eion">      0.00000000 </i>
  </dipole>
  <structure>
   <crystal>
    <varray name="basis" >
     <v>       5.55785930       0.00000000       0.00000000 </v>
     <v>       2.77892965       4.81324734       0.00000000 </v>
     <v>       0.00000000       0.00000000      30.80695967 </v>
    </varray>
    <i name="volume">    824.12780743 </i>
    <varray name="rec_basis" >
     <v>       0.17992539      -0.10387997       0.00000000 </v>
     <v>       0.00000000       0.20775994       0.00000000 </v>
     <v>       0.00000000       0.00000000       0.03246020 </v>
    </varray>
   </crystal>
   <varray name="positions" >
    <v>       0.00000000       0.00000000       0.38952237 </v>
    <v>       0.50000000       0.00000000       0.38952237 </v>
    <v>       0.00000000       0.50000000       0.38952237 </v>
    <v>       0.50000000       0.50000000       0.38952237 </v>
    <v>       0.16666667       0.16666667       0.46468540 </v>
    <v>       0.66666667       0.16666667       0.46468540 </v>
    <v>       0.16666667       0.66666667       0.46468540 </v>
    <v>       0.66666667       0.66666667       0.46468540 </v>
    <v>       0.83333333       0.33333333       0.53920296 </v>
    <v>       0.33333333       0.33333333       0.53920296 </v>
    <v>       0.83333333       0.83333333       0.53920296 </v>
    <v>       0.33333333       0.83333333       0.53920296 </v>
    <v>       0.00000000       0.00000000       0.61486043 </v>
    <v>       0.50000000       0.00000000       0.61486043 </v>
    <v>       0.00000000       0.50000000       0.61486043 </v>
    <v>       0.50000000       0.50000000       0.61486043 </v>
   </varray>
  </structure>
  <varray name="forces" >
   <v>      -0.03943065      -0.02276529       1.07105256 </v>
   <v>       0.03632486       0.01334442      -0.16812388 </v>
   <v>       0.02971904       0.02478604      -0.16812388 </v>
   <v>      -0.01590014      -0.00917995      -0.15346734 </v>
   <v>      -0.14600143      -0.08429396      -0.49395367 </v>
   <v>       0.14137036      -0.08457265      -0.22308919 </v>
   <v>      -0.00255688       0.16471665      -0.22308919 </v>
   <v>      -0.00148690      -0.00085846       0.11679579 </v>
   <v>       0.13535755      -0.07995712      -0.10642672 </v>
   <v>      -0.13615786      -0.07861078      -0.32040096 </v>
   <v>       0.00642925       0.00371193       0.15364130 </v>
   <v>      -0.00156613       0.15720163      -0.10642672 </v>
   <v>      -0.01140044      -0.00658205      -0.14249950 </v>
   <v>       0.00275780       0.01997512      -0.14778894 </v>
   <v>       0.01867786      -0.00759924      -0.14778894 </v>
   <v>      -0.01613628      -0.00931629       1.05968928 </v>
  </varray>
  <varray name="stress" >
   <v>     -21.87457047      -0.04042724      -0.08724719 </v>
   <v>      -0.04042724     -21.82788912      -0.05037219 </v>
   <v>      -0.08724710      -0.05037214      -0.86154884 </v>
  </varray>
  <energy>
   <i name="e_fr_energy">    -92.03333441 </i>
   <i name="e_wo_entrp">    -92.01994570 </i>
   <i name="e_0_energy">     -0.04016613 </i>
  </energy>
  <time name="totalsc">  277.11  277.20</time>
  <eigenvalues>
   <array>
    <dimension dim="1">band</dimension>
    <dimension dim="2">kpoint</dimension>
    <dimension dim="3">spin</dimension>
    <field>eigene</field>
    <field>occ</field>
    <set>
     <set comment="spin 1">
      <set comment="kpoint 1">
       <r>  -10.1931    1.0000 </r>
       <r>   -8.9218    1.0000 </r>
       <r>   -7.8577    1.0000 </r>
       <r>   -7.7398    1.0000 </r>
       <r>   -7.4654    1.0000 </r>
       <r>   -7.4392    1.0000 </r>
       <r>   -7.4362    1.0000 </r>
       <r>   -7.3108    1.0000 </r>
       <r>   -7.2991    1.0000 </r>
       <r>   -7.2857    1.0000 </r>
       <r>   -6.8415    1.0000 </r>
       <r>   -6.8348    1.0000 </r>
       <r>   -6.8262    1.0000 </r>
       <r>   -6.7978    1.0000 </r>
       <r>   -6.7841    1.0000 </r>
       <r>   -6.5986    1.0000 </r>
       <r>   -6.5643    1.0000 </r>
       <r>   -6.5324    1.0000 </r>
       <r>   -6.4854    1.0000 </r>
       <r>   -5.8021    1.0000 </r>
       <r>   -5.7943    1.0000 </r>
       <r>   -5.6871    1.0000 </r>
       <r>   -4.9283    1.0000 </r>
       <r>   -4.9230    1.0000 </r>
       <r>   -4.8105    1.0000 </r>
       <r>   -4.6903    1.0000 </r>
       <r>   -4.6613    1.0000 </r>
       <r>   -4.6525    1.0000 </r>
       <r>   -4.6120    1.0000 </r>
       <r>   -4.5289    1.0000 </r>
       <r>   -4.3749    1.0000 </r>
       <r>   -4.3302    1.0000 </r>
       <r>   -4.2131    1.0000 </r>
       <r>   -4.1989    1.0000 </r>
       <r>   -4.0558    1.0000 </r>
       <r>   -4.0332    1.0000 </r>
       <r>   -3.9908    1.0000 </r>
       <r>   -3.9856    1.0000 </r>
       <r>   -3.9600    1.0000 </r>
       <r>   -3.8477    1.0000 </r>
       <r>   -3.7176    1.0000 </r>
       <r>   -3.6875    1.0000 </r>
       <r>   -3.5082    1.0000 </r>
       <r>   -3.4736    1.0000 </r>
       <r>   -3.3933    1.0000 </r>
       <r>   -3.1705    1.0000 </r>
       <r>   -3.1502    1.0000 </r>
       <r>   -2.9415    1.0000 </r>
       <r>   -2.9222    1.0000 </r>
       <r>   -2.7819    1.0000 </r>
       <r>   -2.7404    1.0000 </r>
       <r>   -2.3541    1.0000 </r>
       <r>   -2.3520    1.0000 </r>
       <r>   -2.1302    1.0000 </r>
       <r>   -2.1220    1.0000 </r>
       <r>   -1.8503    1.0000 </r>
       <r>   -1.8484    1.0000 </r>
       <r>   -1.6926    1.0000 </r>
       <r>   -1.6617    1.0000 </r>
       <r>   -1.5868    1.0000 </r>
       <r>   -1.5674    1.0000 </r>
       <r>   -1.5104    1.0000 </r>
       <r>   -1.2844    1.0023 </r>
       <r>   -1.1550    1.0186 </r>
       <r>   -1.1191    1.0268 </r>
       <r>   -1.1096    1.0289 </r>
       <r>   -1.0378    1.0332 </r>
       <r>   -1.0241    1.0290 </r>
       <r>   -1.0020    1.0166 </r>
       <r>   -0.9101    0.8549 </r>
       <r>   -0.8090    0.4728 </r>
       <r>   -0.7966    0.4207 </r>
       <r>   -0.7525    0.2475 </r>
       <r>   -0.7433    0.2155 </r>
       <r>   -0.7055    0.1038 </r>
       <r>   -0.6996    0.0895 </r>
       <r>   -0.6793    0.0470 </r>
       <r>   -0.5331   -0.0313 </r>
       <r>   -0.5191   -0.0285 </r>
       <r>   -0.4944   -0.0228 </r>
       <r>   -0.3534   -0.0026 </r>
       <r>   -0.1974   -0.0001 </r>
       <r>   -0.1108   -0.0000 </r>
       <r>   -0.0272   -0.0000 </r>
       <r>    0.0292   -0.0000 </r>
       <r>    0.0734   -0.0000 </r>
       <r>    0.3696   -0.0000 </r>
       <r>    0.4088   -0.0000 </r>
       <r>    1.1938   -0.0000 </r>
       <r>    1.4865   -0.0000 </r>
       <r>    1.6120   -0.0000 </r>
       <r>    1.6357   -0.0000 </r>
       <r>    1.7644   -0.0000 </r>
       <r>    1.7702   -0.0000 </r>
       <r>    2.5805   -0.0000 </r>
       <r>    2.5832   -0.0000 </r>
      </set>
      <set comment="kpoint 2">
       <r>  -10.1931    1.0000 </r>
       <r>   -8.9218    1.0000 </r>
       <r>   -7.8577    1.0000 </r>
       <r>   -7.7398    1.0000 </r>
       <r>   -7.4647    1.0000 </r>
       <r>   -7.4426    1.0000 </r>
       <r>   -7.4334    1.0000 </r>
       <r>   -7.3113    1.0000 </r>
       <r>   -7.2988    1.0000 </r>
       <r>   -7.2855    1.0000 </r>
       <r>   -6.8416    1.0000 </r>
       <r>   -6.8329    1.0000 </r>
       <r>   -6.8281    1.0000 </r>
       <r>   -6.7966    1.0000 </r>
       <r>   -6.7854    1.0000 </r>
       <r>   -6.5963    1.0000 </r>
       <r>   -6.5616    1.0000 </r>
       <r>   -6.5400    1.0000 </r>
       <r>   -6.4824    1.0000 </r>
       <r>   -5.8036    1.0000 </r>
       <r>   -5.7930    1.0000 </r>
       <r>   -5.6868    1.0000 </r>
       <r>   -4.9349    1.0000 </r>
       <r>   -4.9169    1.0000 </r>
       <r>   -4.8105    1.0000 </r>
       <r>   -4.6822    1.0000 </r>
       <r>   -4.6674    1.0000 </r>
       <r>   -4.6536    1.0000 </r>
       <r>   -4.6119    1.0000 </r>
       <r>   -4.5295    1.0000 </r>
       <r>   -4.3748    1.0000 </r>
       <r>   -4.3303    1.0000 </r>
       <r>   -4.2109    1.0000 </r>
       <r>   -4.2006    1.0000 </r>
       <r>   -4.0575    1.0000 </r>
       <r>   -4.0309    1.0000 </r>
       <r>   -3.9988    1.0000 </r>
       <r>   -3.9822    1.0000 </r>
       <r>   -3.9562    1.0000 </r>
       <r>   -3.8498    1.0000 </r>
       <r>   -3.7173    1.0000 </r>
       <r>   -3.6869    1.0000 </r>
       <r>   -3.5042    1.0000 </r>
       <r>   -3.4753    1.0000 </r>
       <r>   -3.3939    1.0000 </r>
       <r>   -3.1937    1.0000 </r>
       <r>   -3.1207    1.0000 </r>
       <r>   -2.9573    1.0000 </r>
       <r>   -2.8943    1.0000 </r>
       <r>   -2.8244    1.0000 </r>
       <r>   -2.7167    1.0000 </r>
       <r>   -2.3594    1.0000 </r>
       <r>   -2.3452    1.0000 </r>
       <r>   -2.1435    1.0000 </r>
       <r>   -2.1167    1.0000 </r>
       <r>   -1.8773    1.0000 </r>
       <r>   -1.8159    1.0000 </r>
       <r>   -1.7070    1.0000 </r>
       <r>   -1.6604    1.0000 </r>
       <r>   -1.5907    1.0000 </r>
       <r>   -1.5354    1.0000 </r>
       <r>   -1.4893    1.0000 </r>
       <r>   -1.3169    1.0011 </r>
       <r>   -1.1815    1.0133 </r>
       <r>   -1.1383    1.0224 </r>
       <r>   -1.0980    1.0313 </r>
       <r>   -1.0641    1.0354 </r>
       <r>   -1.0030    1.0174 </r>
       <r>   -0.9494    0.9489 </r>
       <r>   -0.9013    0.8286 </r>
       <r>   -0.8214    0.5250 </r>
       <r>   -0.7867    0.3795 </r>
       <r>   -0.7719    0.3203 </r>
       <r>   -0.7447    0.2203 </r>
       <r>   -0.7091    0.1130 </r>
       <r>   -0.7037    0.0992 </r>
       <r>   -0.6699    0.0307 </r>
       <r>   -0.5336   -0.0314 </r>
       <r>   -0.5263   -0.0300 </r>
       <r>   -0.4953   -0.0230 </r>
       <r>   -0.3670   -0.0034 </r>
       <r>   -0.1993   -0.0001 </r>
       <r>   -0.0834   -0.0000 </r>
       <r>   -0.0114   -0.0000 </r>
       <r>    0.0273   -0.0000 </r>
       <r>    0.0663   -0.0000 </r>
       <r>    0.3199   -0.0000 </r>
       <r>    0.4448   -0.0000 </r>
       <r>    1.1950   -0.0000 </r>
       <r>    1.4844   -0.0000 </r>
       <r>    1.6240   -0.0000 </r>
       <r>    1.6260   -0.0000 </r>
       <r>    1.7292   -0.0000 </r>
       <r>    1.8042   -0.0000 </r>
       <r>    2.5752   -0.0000 </r>
       <r>    2.5875   -0.0000 </r>
      </set>
      <set comment="kpoint 3">
       <r>   -9.9891    1.0000 </r>
       <r>   -8.7202    1.0000 </r>
       <r>   -7.6523    1.0000 </r>
       <r>   -7.5460    1.0000 </r>
       <r>   -7.4460    1.0000 </r>
       <r>   -7.3677    1.0000 </r>
       <r>   -7.2499    1.0000 </r>
       <r>   -7.2289    1.0000 </r>
       <r>   -7.1806    1.0000 </r>
       <r>   -7.1136    1.0000 </r>
       <r>   -6.7499    1.0000 </r>
       <r>   -6.7324    1.0000 </r>
       <r>   -6.7256    1.0000 </r>
       <r>   -6.7144    1.0000 </r>
       <r>   -6.6481    1.0000 </r>
       <r>   -6.4931    1.0000 </r>
       <r>   -6.4333    1.0000 </r>
       <r>   -6.3845    1.0000 </r>
       <r>   -6.3095    1.0000 </r>
       <r>   -5.7454    1.0000 </r>
       <r>   -5.7292    1.0000 </r>
       <r>   -5.6329    1.0000 </r>
       <r>   -4.9775    1.0000 </r>
       <r>   -4.9114    1.0000 </r>
       <r>   -4.8512    1.0000 </r>
       <r>   -4.7290    1.0000 </r>
       <r>   -4.6679    1.0000 </r>
       <r>   -4.5963    1.0000 </r>
       <r>   -4.5822    1.0000 </r>
       <r>   -4.5491    1.0000 </r>
       <r>   -4.4798    1.0000 </r>
       <r>   -4.2180    1.0000 </r>
       <r>   -4.1812    1.0000 </r>
       <r>   -4.1339    1.0000 </r>
       <r>   -4.1103    1.0000 </r>
       <r>   -4.0412    1.0000 </r>
       <r>   -4.0084    1.0000 </r>
       <r>   -3.9918    1.0000 </r>
       <r>   -3.9327    1.0000 </r>
       <r>   -3.8687    1.0000 </r>
       <r>   -3.7956    1.0000 </r>
       <r>   -3.6529    1.0000 </r>
       <r>   -3.6268    1.0000 </r>
       <r>   -3.5552    1.0000 </r>
       <r>   -3.5387    1.0000 </r>
       <r>   -3.4807    1.0000 </r>
       <r>   -3.2862    1.0000 </r>
       <r>   -3.1518    1.0000 </r>
       <r>   -2.9542    1.0000 </r>
       <r>   -2.8336    1.0000 </r>
       <r>   -2.6854    1.0000 </r>
       <r>   -2.4749    1.0000 </r>
       <r>   -2.4392    1.0000 </r>
       <r>   -2.3176    1.0000 </r>
       <r>   -2.1626    1.0000 </r>
       <r>   -2.0292    1.0000 </r>
       <r>   -2.0074    1.0000 </r>
       <r>   -1.8949    1.0000 </r>
       <r>   -1.8758    1.0000 </r>
       <r>   -1.8133    1.0000 </r>
       <r>   -1.7641    1.0000 </r>
       <r>   -1.6988    1.0000 </r>
       <r>   -1.6452    1.0000 </r>
       <r>   -1.5690    1.0000 </r>
       <r>   -1.5237    1.0000 </r>
       <r>   -1.4519    1.0000 </r>
       <r>   -1.2817    1.0024 </r>
       <r>   -1.2056    1.0093 </r>
       <r>   -1.1596    1.0177 </r>
       <r>   -1.0767    1.0345 </r>
       <r>   -1.0590    1.0354 </r>
       <r>   -1.0291    1.0308 </r>
       <r>   -0.9655    0.9762 </r>
       <r>   -0.9542    0.9575 </r>
       <r>   -0.8612    0.6881 </r>
       <r>   -0.8380    0.5947 </r>
       <r>   -0.8032    0.4483 </r>
       <r>   -0.7673    0.3025 </r>
       <r>   -0.7417    0.2101 </r>
       <r>   -0.6406   -0.0068 </r>
       <r>   -0.5667   -0.0354 </r>
       <r>   -0.4821   -0.0200 </r>
       <r>   -0.3704   -0.0036 </r>
       <r>   -0.3065   -0.0009 </r>
       <r>   -0.1863   -0.0000 </r>
       <r>    0.1737   -0.0000 </r>
       <r>    0.2583   -0.0000 </r>
       <r>    0.8108   -0.0000 </r>
       <r>    0.8394   -0.0000 </r>
       <r>    1.0937   -0.0000 </r>
       <r>    1.2807   -0.0000 </r>
       <r>    1.6147   -0.0000 </r>
       <r>    2.1343   -0.0000 </r>
       <r>    2.5162   -0.0000 </r>
       <r>    3.0078   -0.0000 </r>
       <r>    3.3616   -0.0000 </r>
      </set>
      <set comment="kpoint 4">
       <r>   -9.9891    1.0000 </r>
       <r>   -8.7202    1.0000 </r>
       <r>   -7.6523    1.0000 </r>
       <r>   -7.5460    1.0000 </r>
       <r>   -7.4459    1.0000 </r>
       <r>   -7.3675    1.0000 </r>
       <r>   -7.2498    1.0000 </r>
       <r>   -7.2287    1.0000 </r>
       <r>   -7.1809    1.0000 </r>
       <r>   -7.1137    1.0000 </r>
       <r>   -6.7500    1.0000 </r>
       <r>   -6.7348    1.0000 </r>
       <r>   -6.7215    1.0000 </r>
       <r>   -6.7165    1.0000 </r>
       <r>   -6.6467    1.0000 </r>
       <r>   -6.4964    1.0000 </r>
       <r>   -6.4355    1.0000 </r>
       <r>   -6.3752    1.0000 </r>
       <r>   -6.3144    1.0000 </r>
       <r>   -5.7399    1.0000 </r>
       <r>   -5.7339    1.0000 </r>
       <r>   -5.6337    1.0000 </r>
       <r>   -4.9711    1.0000 </r>
       <r>   -4.9176    1.0000 </r>
       <r>   -4.8500    1.0000 </r>
       <r>   -4.7376    1.0000 </r>
       <r>   -4.6640    1.0000 </r>
       <r>   -4.5935    1.0000 </r>
       <r>   -4.5822    1.0000 </r>
       <r>   -4.5473    1.0000 </r>
       <r>   -4.4807    1.0000 </r>
       <r>   -4.2193    1.0000 </r>
       <r>   -4.1810    1.0000 </r>
       <r>   -4.1361    1.0000 </r>
       <r>   -4.1072    1.0000 </r>
       <r>   -4.0368    1.0000 </r>
       <r>   -4.0126    1.0000 </r>
       <r>   -3.9832    1.0000 </r>
       <r>   -3.9365    1.0000 </r>
       <r>   -3.8719    1.0000 </r>
       <r>   -3.7971    1.0000 </r>
       <r>   -3.6633    1.0000 </r>
       <r>   -3.6121    1.0000 </r>
       <r>   -3.5590    1.0000 </r>
       <r>   -3.5424    1.0000 </r>
       <r>   -3.4723    1.0000 </r>
       <r>   -3.3060    1.0000 </r>
       <r>   -3.1375    1.0000 </r>
       <r>   -2.9617    1.0000 </r>
       <r>   -2.8159    1.0000 </r>
       <r>   -2.6978    1.0000 </r>
       <r>   -2.4782    1.0000 </r>
       <r>   -2.4361    1.0000 </r>
       <r>   -2.2948    1.0000 </r>
       <r>   -2.1773    1.0000 </r>
       <r>   -2.0279    1.0000 </r>
       <r>   -2.0056    1.0000 </r>
       <r>   -1.9208    1.0000 </r>
       <r>   -1.8500    1.0000 </r>
       <r>   -1.8189    1.0000 </r>
       <r>   -1.7774    1.0000 </r>
       <r>   -1.7106    1.0000 </r>
       <r>   -1.6191    1.0000 </r>
       <r>   -1.5888    1.0000 </r>
       <r>   -1.5199    1.0000 </r>
       <r>   -1.4422    1.0000 </r>
       <r>   -1.2820    1.0024 </r>
       <r>   -1.2171    1.0078 </r>
       <r>   -1.1452    1.0208 </r>
       <r>   -1.0872    1.0332 </r>
       <r>   -1.0402    1.0337 </r>
       <r>   -1.0261    1.0298 </r>
       <r>   -0.9710    0.9841 </r>
       <r>   -0.9465    0.9431 </r>
       <r>   -0.8809    0.7609 </r>
       <r>   -0.8389    0.5985 </r>
       <r>   -0.8118    0.4844 </r>
       <r>   -0.7607    0.2776 </r>
       <r>   -0.7319    0.1782 </r>
       <r>   -0.6479    0.0009 </r>
       <r>   -0.5481   -0.0338 </r>
       <r>   -0.4575   -0.0148 </r>
       <r>   -0.4106   -0.0074 </r>
       <r>   -0.3046   -0.0009 </r>
       <r>   -0.1935   -0.0000 </r>
       <r>    0.1772   -0.0000 </r>
       <r>    0.2670   -0.0000 </r>
       <r>    0.8037   -0.0000 </r>
       <r>    0.8414   -0.0000 </r>
       <r>    1.0929   -0.0000 </r>
       <r>    1.2825   -0.0000 </r>
       <r>    1.6142   -0.0000 </r>
       <r>    2.1356   -0.0000 </r>
       <r>    2.5157   -0.0000 </r>
       <r>    3.0077   -0.0000 </r>
       <r>    3.3616   -0.0000 </r>
      </set>
      <set comment="kpoint 5">
       <r>   -9.9891    1.0000 </r>
       <r>   -8.7202    1.0000 </r>
       <r>   -7.6523    1.0000 </r>
       <r>   -7.5460    1.0000 </r>
       <r>   -7.4458    1.0000 </r>
       <r>   -7.3681    1.0000 </r>
       <r>   -7.2497    1.0000 </r>
       <r>   -7.2293    1.0000 </r>
       <r>   -7.1806    1.0000 </r>
       <r>   -7.1133    1.0000 </r>
       <r>   -6.7499    1.0000 </r>
       <r>   -6.7316    1.0000 </r>
       <r>   -6.7223    1.0000 </r>
       <r>   -6.7198    1.0000 </r>
       <r>   -6.6464    1.0000 </r>
       <r>   -6.4878    1.0000 </r>
       <r>   -6.4419    1.0000 </r>
       <r>   -6.3831    1.0000 </r>
       <r>   -6.3077    1.0000 </r>
       <r>   -5.7477    1.0000 </r>
       <r>   -5.7279    1.0000 </r>
       <r>   -5.6317    1.0000 </r>
       <r>   -4.9812    1.0000 </r>
       <r>   -4.9077    1.0000 </r>
       <r>   -4.8524    1.0000 </r>
       <r>   -4.7255    1.0000 </r>
       <r>   -4.6685    1.0000 </r>
       <r>   -4.5912    1.0000 </r>
       <r>   -4.5840    1.0000 </r>
       <r>   -4.5560    1.0000 </r>
       <r>   -4.4770    1.0000 </r>
       <r>   -4.2144    1.0000 </r>
       <r>   -4.1820    1.0000 </r>
       <r>   -4.1427    1.0000 </r>
       <r>   -4.1047    1.0000 </r>
       <r>   -4.0456    1.0000 </r>
       <r>   -4.0207    1.0000 </r>
       <r>   -3.9871    1.0000 </r>
       <r>   -3.9242    1.0000 </r>
       <r>   -3.8678    1.0000 </r>
       <r>   -3.7914    1.0000 </r>
       <r>   -3.6569    1.0000 </r>
       <r>   -3.6338    1.0000 </r>
       <r>   -3.5535    1.0000 </r>
       <r>   -3.5280    1.0000 </r>
       <r>   -3.4771    1.0000 </r>
       <r>   -3.3041    1.0000 </r>
       <r>   -3.1145    1.0000 </r>
       <r>   -2.9862    1.0000 </r>
       <r>   -2.8359    1.0000 </r>
       <r>   -2.6732    1.0000 </r>
       <r>   -2.4839    1.0000 </r>
       <r>   -2.4260    1.0000 </r>
       <r>   -2.3494    1.0000 </r>
       <r>   -2.1420    1.0000 </r>
       <r>   -2.0452    1.0000 </r>
       <r>   -1.9889    1.0000 </r>
       <r>   -1.9362    1.0000 </r>
       <r>   -1.8488    1.0000 </r>
       <r>   -1.8032    1.0000 </r>
       <r>   -1.7216    1.0000 </r>
       <r>   -1.7115    1.0000 </r>
       <r>   -1.6501    1.0000 </r>
       <r>   -1.5607    1.0000 </r>
       <r>   -1.5423    1.0000 </r>
       <r>   -1.4421    1.0000 </r>
       <r>   -1.2932    1.0019 </r>
       <r>   -1.2276    1.0065 </r>
       <r>   -1.1617    1.0172 </r>
       <r>   -1.0995    1.0310 </r>
       <r>   -1.0578    1.0354 </r>
       <r>   -0.9930    1.0091 </r>
       <r>   -0.9701    0.9829 </r>
       <r>   -0.9269    0.8998 </r>
       <r>   -0.8567    0.6702 </r>
       <r>   -0.8468    0.6309 </r>
       <r>   -0.8302    0.5622 </r>
       <r>   -0.7824    0.3620 </r>
       <r>   -0.6985    0.0870 </r>
       <r>   -0.6537    0.0077 </r>
       <r>   -0.5909   -0.0336 </r>
       <r>   -0.4704   -0.0175 </r>
       <r>   -0.3639   -0.0032 </r>
       <r>   -0.2979   -0.0008 </r>
       <r>   -0.1958   -0.0001 </r>
       <r>    0.1756   -0.0000 </r>
       <r>    0.2591   -0.0000 </r>
       <r>    0.8075   -0.0000 </r>
       <r>    0.8425   -0.0000 </r>
       <r>    1.0916   -0.0000 </r>
       <r>    1.2804   -0.0000 </r>
       <r>    1.6156   -0.0000 </r>
       <r>    2.1342   -0.0000 </r>
       <r>    2.5163   -0.0000 </r>
       <r>    3.0078   -0.0000 </r>
       <r>    3.3628   -0.0000 </r>
      </set>
      <set comment="kpoint 6">
       <r>   -9.5354    1.0000 </r>
       <r>   -8.2843    1.0000 </r>
       <r>   -7.5443    1.0000 </r>
       <r>   -7.2242    1.0000 </r>
       <r>   -7.1352    1.0000 </r>
       <r>   -7.1185    1.0000 </r>
       <r>   -7.1057    1.0000 </r>
       <r>   -6.9107    1.0000 </r>
       <r>   -6.8793    1.0000 </r>
       <r>   -6.8038    1.0000 </r>
       <r>   -6.6711    1.0000 </r>
       <r>   -6.5148    1.0000 </r>
       <r>   -6.4988    1.0000 </r>
       <r>   -6.4538    1.0000 </r>
       <r>   -6.3490    1.0000 </r>
       <r>   -6.2890    1.0000 </r>
       <r>   -6.1288    1.0000 </r>
       <r>   -6.0502    1.0000 </r>
       <r>   -5.9274    1.0000 </r>
       <r>   -5.6233    1.0000 </r>
       <r>   -5.5782    1.0000 </r>
       <r>   -5.5172    1.0000 </r>
       <r>   -5.1143    1.0000 </r>
       <r>   -5.0496    1.0000 </r>
       <r>   -4.9534    1.0000 </r>
       <r>   -4.8516    1.0000 </r>
       <r>   -4.7975    1.0000 </r>
       <r>   -4.7259    1.0000 </r>
       <r>   -4.5338    1.0000 </r>
       <r>   -4.4890    1.0000 </r>
       <r>   -4.4317    1.0000 </r>
       <r>   -4.2983    1.0000 </r>
       <r>   -4.2762    1.0000 </r>
       <r>   -4.2473    1.0000 </r>
       <r>   -4.1374    1.0000 </r>
       <r>   -4.0891    1.0000 </r>
       <r>   -4.0131    1.0000 </r>
       <r>   -3.9320    1.0000 </r>
       <r>   -3.9038    1.0000 </r>
       <r>   -3.8819    1.0000 </r>
       <r>   -3.8365    1.0000 </r>
       <r>   -3.8146    1.0000 </r>
       <r>   -3.7917    1.0000 </r>
       <r>   -3.7807    1.0000 </r>
       <r>   -3.6371    1.0000 </r>
       <r>   -3.5350    1.0000 </r>
       <r>   -3.4635    1.0000 </r>
       <r>   -3.2505    1.0000 </r>
       <r>   -3.0751    1.0000 </r>
       <r>   -3.0038    1.0000 </r>
       <r>   -2.8912    1.0000 </r>
       <r>   -2.7964    1.0000 </r>
       <r>   -2.7222    1.0000 </r>
       <r>   -2.6926    1.0000 </r>
       <r>   -2.6038    1.0000 </r>
       <r>   -2.5867    1.0000 </r>
       <r>   -2.5296    1.0000 </r>
       <r>   -2.4868    1.0000 </r>
       <r>   -2.3905    1.0000 </r>
       <r>   -2.3573    1.0000 </r>
       <r>   -2.2043    1.0000 </r>
       <r>   -2.1312    1.0000 </r>
       <r>   -2.0317    1.0000 </r>
       <r>   -1.9236    1.0000 </r>
       <r>   -1.8746    1.0000 </r>
       <r>   -1.8269    1.0000 </r>
       <r>   -1.6900    1.0000 </r>
       <r>   -1.6196    1.0000 </r>
       <r>   -1.5636    1.0000 </r>
       <r>   -1.5174    1.0000 </r>
       <r>   -1.4796    1.0000 </r>
       <r>   -1.3661    1.0003 </r>
       <r>   -1.2773    1.0026 </r>
       <r>   -1.2682    1.0031 </r>
       <r>   -1.2147    1.0081 </r>
       <r>   -1.1290    1.0246 </r>
       <r>   -1.0318    1.0317 </r>
       <r>   -0.9836    0.9998 </r>
       <r>   -0.9196    0.8811 </r>
       <r>   -0.8175    0.5087 </r>
       <r>   -0.7634    0.2877 </r>
       <r>   -0.7289    0.1690 </r>
       <r>   -0.6489    0.0020 </r>
       <r>   -0.5610   -0.0351 </r>
       <r>   -0.4623   -0.0158 </r>
       <r>    0.3034   -0.0000 </r>
       <r>    0.3644   -0.0000 </r>
       <r>    0.5417   -0.0000 </r>
       <r>    0.9301   -0.0000 </r>
       <r>    1.6905   -0.0000 </r>
       <r>    1.8938   -0.0000 </r>
       <r>    1.9340   -0.0000 </r>
       <r>    2.2795   -0.0000 </r>
       <r>    2.6604   -0.0000 </r>
       <r>    3.2274   -0.0000 </r>
       <r>    3.9083   -0.0000 </r>
      </set>
      <set comment="kpoint 7">
       <r>   -9.5353    1.0000 </r>
       <r>   -8.2843    1.0000 </r>
       <r>   -7.5443    1.0000 </r>
       <r>   -7.2242    1.0000 </r>
       <r>   -7.1318    1.0000 </r>
       <r>   -7.1209    1.0000 </r>
       <r>   -7.1055    1.0000 </r>
       <r>   -6.9094    1.0000 </r>
       <r>   -6.8809    1.0000 </r>
       <r>   -6.8044    1.0000 </r>
       <r>   -6.6713    1.0000 </r>
       <r>   -6.5146    1.0000 </r>
       <r>   -6.4980    1.0000 </r>
       <r>   -6.4550    1.0000 </r>
       <r>   -6.3474    1.0000 </r>
       <r>   -6.2920    1.0000 </r>
       <r>   -6.1328    1.0000 </r>
       <r>   -6.0352    1.0000 </r>
       <r>   -5.9389    1.0000 </r>
       <r>   -5.6083    1.0000 </r>
       <r>   -5.5869    1.0000 </r>
       <r>   -5.5232    1.0000 </r>
       <r>   -5.1060    1.0000 </r>
       <r>   -5.0512    1.0000 </r>
       <r>   -4.9583    1.0000 </r>
       <r>   -4.8586    1.0000 </r>
       <r>   -4.7907    1.0000 </r>
       <r>   -4.7312    1.0000 </r>
       <r>   -4.5382    1.0000 </r>
       <r>   -4.4828    1.0000 </r>
       <r>   -4.4280    1.0000 </r>
       <r>   -4.2990    1.0000 </r>
       <r>   -4.2682    1.0000 </r>
       <r>   -4.2406    1.0000 </r>
       <r>   -4.1438    1.0000 </r>
       <r>   -4.0851    1.0000 </r>
       <r>   -4.0246    1.0000 </r>
       <r>   -3.9337    1.0000 </r>
       <r>   -3.8946    1.0000 </r>
       <r>   -3.8763    1.0000 </r>
       <r>   -3.8375    1.0000 </r>
       <r>   -3.8239    1.0000 </r>
       <r>   -3.7955    1.0000 </r>
       <r>   -3.7744    1.0000 </r>
       <r>   -3.6613    1.0000 </r>
       <r>   -3.5397    1.0000 </r>
       <r>   -3.4435    1.0000 </r>
       <r>   -3.2540    1.0000 </r>
       <r>   -3.0623    1.0000 </r>
       <r>   -3.0084    1.0000 </r>
       <r>   -2.8733    1.0000 </r>
       <r>   -2.8040    1.0000 </r>
       <r>   -2.7370    1.0000 </r>
       <r>   -2.6835    1.0000 </r>
       <r>   -2.6054    1.0000 </r>
       <r>   -2.5859    1.0000 </r>
       <r>   -2.5231    1.0000 </r>
       <r>   -2.4750    1.0000 </r>
       <r>   -2.4212    1.0000 </r>
       <r>   -2.3373    1.0000 </r>
       <r>   -2.2308    1.0000 </r>
       <r>   -2.1553    1.0000 </r>
       <r>   -1.9659    1.0000 </r>
       <r>   -1.9372    1.0000 </r>
       <r>   -1.9019    1.0000 </r>
       <r>   -1.8055    1.0000 </r>
       <r>   -1.6812    1.0000 </r>
       <r>   -1.6111    1.0000 </r>
       <r>   -1.5901    1.0000 </r>
       <r>   -1.5278    1.0000 </r>
       <r>   -1.4794    1.0000 </r>
       <r>   -1.4001    1.0001 </r>
       <r>   -1.2836    1.0023 </r>
       <r>   -1.2378    1.0055 </r>
       <r>   -1.1572    1.0182 </r>
       <r>   -1.1147    1.0278 </r>
       <r>   -1.0805    1.0341 </r>
       <r>   -0.9902    1.0066 </r>
       <r>   -0.8995    0.8230 </r>
       <r>   -0.8346    0.5804 </r>
       <r>   -0.7946    0.4122 </r>
       <r>   -0.7275    0.1647 </r>
       <r>   -0.6282   -0.0172 </r>
       <r>   -0.5084   -0.0260 </r>
       <r>   -0.5037   -0.0250 </r>
       <r>    0.3032   -0.0000 </r>
       <r>    0.3636   -0.0000 </r>
       <r>    0.5438   -0.0000 </r>
       <r>    0.9272   -0.0000 </r>
       <r>    1.7087   -0.0000 </r>
       <r>    1.8865   -0.0000 </r>
       <r>    1.9078   -0.0000 </r>
       <r>    2.2976   -0.0000 </r>
       <r>    2.6604   -0.0000 </r>
       <r>    3.2254   -0.0000 </r>
       <r>    3.9081   -0.0000 </r>
      </set>
      <set comment="kpoint 8">
       <r>   -9.5354    1.0000 </r>
       <r>   -8.2843    1.0000 </r>
       <r>   -7.5444    1.0000 </r>
       <r>   -7.2242    1.0000 </r>
       <r>   -7.1352    1.0000 </r>
       <r>   -7.1186    1.0000 </r>
       <r>   -7.1058    1.0000 </r>
       <r>   -6.9110    1.0000 </r>
       <r>   -6.8793    1.0000 </r>
       <r>   -6.8039    1.0000 </r>
       <r>   -6.6712    1.0000 </r>
       <r>   -6.5159    1.0000 </r>
       <r>   -6.4960    1.0000 </r>
       <r>   -6.4552    1.0000 </r>
       <r>   -6.3427    1.0000 </r>
       <r>   -6.2956    1.0000 </r>
       <r>   -6.1290    1.0000 </r>
       <r>   -6.0486    1.0000 </r>
       <r>   -5.9279    1.0000 </r>
       <r>   -5.6230    1.0000 </r>
       <r>   -5.5786    1.0000 </r>
       <r>   -5.5167    1.0000 </r>
       <r>   -5.1132    1.0000 </r>
       <r>   -5.0515    1.0000 </r>
       <r>   -4.9531    1.0000 </r>
       <r>   -4.8507    1.0000 </r>
       <r>   -4.7987    1.0000 </r>
       <r>   -4.7259    1.0000 </r>
       <r>   -4.5318    1.0000 </r>
       <r>   -4.4848    1.0000 </r>
       <r>   -4.4360    1.0000 </r>
       <r>   -4.2915    1.0000 </r>
       <r>   -4.2804    1.0000 </r>
       <r>   -4.2563    1.0000 </r>
       <r>   -4.1352    1.0000 </r>
       <r>   -4.0885    1.0000 </r>
       <r>   -4.0101    1.0000 </r>
       <r>   -3.9422    1.0000 </r>
       <r>   -3.9061    1.0000 </r>
       <r>   -3.8727    1.0000 </r>
       <r>   -3.8306    1.0000 </r>
       <r>   -3.8227    1.0000 </r>
       <r>   -3.7896    1.0000 </r>
       <r>   -3.7799    1.0000 </r>
       <r>   -3.6341    1.0000 </r>
       <r>   -3.5302    1.0000 </r>
       <r>   -3.4626    1.0000 </r>
       <r>   -3.2517    1.0000 </r>
       <r>   -3.0855    1.0000 </r>
       <r>   -3.0053    1.0000 </r>
       <r>   -2.8883    1.0000 </r>
       <r>   -2.7880    1.0000 </r>
       <r>   -2.7358    1.0000 </r>
       <r>   -2.6801    1.0000 </r>
       <r>   -2.6041    1.0000 </r>
       <r>   -2.5897    1.0000 </r>
       <r>   -2.5436    1.0000 </r>
       <r>   -2.4878    1.0000 </r>
       <r>   -2.4049    1.0000 </r>
       <r>   -2.3362    1.0000 </r>
       <r>   -2.1912    1.0000 </r>
       <r>   -2.1120    1.0000 </r>
       <r>   -2.0674    1.0000 </r>
       <r>   -1.9071    1.0000 </r>
       <r>   -1.8590    1.0000 </r>
       <r>   -1.8264    1.0000 </r>
       <r>   -1.7206    1.0000 </r>
       <r>   -1.6065    1.0000 </r>
       <r>   -1.5511    1.0000 </r>
       <r>   -1.5306    1.0000 </r>
       <r>   -1.4665    1.0000 </r>
       <r>   -1.3962    1.0002 </r>
       <r>   -1.2825    1.0023 </r>
       <r>   -1.2661    1.0033 </r>
       <r>   -1.2052    1.0094 </r>
       <r>   -1.1215    1.0263 </r>
       <r>   -1.0237    1.0289 </r>
       <r>   -0.9849    1.0011 </r>
       <r>   -0.9190    0.8795 </r>
       <r>   -0.8194    0.5165 </r>
       <r>   -0.7576    0.2661 </r>
       <r>   -0.7378    0.1973 </r>
       <r>   -0.6623    0.0192 </r>
       <r>   -0.5524   -0.0343 </r>
       <r>   -0.4601   -0.0153 </r>
       <r>    0.3034   -0.0000 </r>
       <r>    0.3653   -0.0000 </r>
       <r>    0.5407   -0.0000 </r>
       <r>    0.9291   -0.0000 </r>
       <r>    1.6904   -0.0000 </r>
       <r>    1.9049   -0.0000 </r>
       <r>    1.9241   -0.0000 </r>
       <r>    2.2798   -0.0000 </r>
       <r>    2.6590   -0.0000 </r>
       <r>    3.2286   -0.0000 </r>
       <r>    3.9083   -0.0000 </r>
      </set>
      <set comment="kpoint 9">
       <r>   -8.8961    1.0000 </r>
       <r>   -7.9108    1.0000 </r>
       <r>   -7.7221    1.0000 </r>
       <r>   -7.1462    1.0000 </r>
       <r>   -6.7864    1.0000 </r>
       <r>   -6.7722    1.0000 </r>
       <r>   -6.6238    1.0000 </r>
       <r>   -6.5755    1.0000 </r>
       <r>   -6.5455    1.0000 </r>
       <r>   -6.5362    1.0000 </r>
       <r>   -6.4859    1.0000 </r>
       <r>   -6.2473    1.0000 </r>
       <r>   -6.1859    1.0000 </r>
       <r>   -6.0773    1.0000 </r>
       <r>   -6.0587    1.0000 </r>
       <r>   -5.9927    1.0000 </r>
       <r>   -5.8440    1.0000 </r>
       <r>   -5.6934    1.0000 </r>
       <r>   -5.5377    1.0000 </r>
       <r>   -5.4389    1.0000 </r>
       <r>   -5.3961    1.0000 </r>
       <r>   -5.3547    1.0000 </r>
       <r>   -5.2910    1.0000 </r>
       <r>   -5.2169    1.0000 </r>
       <r>   -5.0652    1.0000 </r>
       <r>   -5.0333    1.0000 </r>
       <r>   -4.9796    1.0000 </r>
       <r>   -4.7799    1.0000 </r>
       <r>   -4.7340    1.0000 </r>
       <r>   -4.6842    1.0000 </r>
       <r>   -4.6429    1.0000 </r>
       <r>   -4.5062    1.0000 </r>
       <r>   -4.4653    1.0000 </r>
       <r>   -4.4309    1.0000 </r>
       <r>   -4.3509    1.0000 </r>
       <r>   -4.2299    1.0000 </r>
       <r>   -4.1407    1.0000 </r>
       <r>   -4.0921    1.0000 </r>
       <r>   -3.9823    1.0000 </r>
       <r>   -3.8989    1.0000 </r>
       <r>   -3.7984    1.0000 </r>
       <r>   -3.7799    1.0000 </r>
       <r>   -3.7189    1.0000 </r>
       <r>   -3.6826    1.0000 </r>
       <r>   -3.6494    1.0000 </r>
       <r>   -3.5943    1.0000 </r>
       <r>   -3.5598    1.0000 </r>
       <r>   -3.5009    1.0000 </r>
       <r>   -3.3860    1.0000 </r>
       <r>   -3.3265    1.0000 </r>
       <r>   -3.2864    1.0000 </r>
       <r>   -3.2383    1.0000 </r>
       <r>   -3.1951    1.0000 </r>
       <r>   -3.0373    1.0000 </r>
       <r>   -2.9986    1.0000 </r>
       <r>   -2.9205    1.0000 </r>
       <r>   -2.8489    1.0000 </r>
       <r>   -2.7931    1.0000 </r>
       <r>   -2.7481    1.0000 </r>
       <r>   -2.5506    1.0000 </r>
       <r>   -2.4930    1.0000 </r>
       <r>   -2.3944    1.0000 </r>
       <r>   -2.3513    1.0000 </r>
       <r>   -2.2833    1.0000 </r>
       <r>   -2.1881    1.0000 </r>
       <r>   -2.1578    1.0000 </r>
       <r>   -2.1102    1.0000 </r>
       <r>   -1.9722    1.0000 </r>
       <r>   -1.9367    1.0000 </r>
       <r>   -1.8838    1.0000 </r>
       <r>   -1.8681    1.0000 </r>
       <r>   -1.7802    1.0000 </r>
       <r>   -1.6445    1.0000 </r>
       <r>   -1.4406    1.0000 </r>
       <r>   -1.4013    1.0001 </r>
       <r>   -1.3156    1.0012 </r>
       <r>   -1.2157    1.0080 </r>
       <r>   -1.0580    1.0354 </r>
       <r>   -0.9385    0.9266 </r>
       <r>   -0.8502    0.6444 </r>
       <r>   -0.8055    0.4580 </r>
       <r>   -0.7214    0.1466 </r>
       <r>   -0.7086    0.1115 </r>
       <r>   -0.5699   -0.0355 </r>
       <r>   -0.4789   -0.0193 </r>
       <r>   -0.2156   -0.0001 </r>
       <r>    0.6841   -0.0000 </r>
       <r>    1.0092   -0.0000 </r>
       <r>    1.0676   -0.0000 </r>
       <r>    1.7715   -0.0000 </r>
       <r>    1.9590   -0.0000 </r>
       <r>    2.1097   -0.0000 </r>
       <r>    2.4364   -0.0000 </r>
       <r>    3.0268   -0.0000 </r>
       <r>    3.5757   -0.0000 </r>
       <r>    3.9973   -0.0000 </r>
      </set>
      <set comment="kpoint 10">
       <r>   -8.8960    1.0000 </r>
       <r>   -7.9105    1.0000 </r>
       <r>   -7.7222    1.0000 </r>
       <r>   -7.1470    1.0000 </r>
       <r>   -6.7836    1.0000 </r>
       <r>   -6.7721    1.0000 </r>
       <r>   -6.6162    1.0000 </r>
       <r>   -6.5657    1.0000 </r>
       <r>   -6.5568    1.0000 </r>
       <r>   -6.5445    1.0000 </r>
       <r>   -6.4860    1.0000 </r>
       <r>   -6.2476    1.0000 </r>
       <r>   -6.1850    1.0000 </r>
       <r>   -6.0817    1.0000 </r>
       <r>   -6.0586    1.0000 </r>
       <r>   -5.9905    1.0000 </r>
       <r>   -5.8419    1.0000 </r>
       <r>   -5.6868    1.0000 </r>
       <r>   -5.5506    1.0000 </r>
       <r>   -5.4469    1.0000 </r>
       <r>   -5.3845    1.0000 </r>
       <r>   -5.3512    1.0000 </r>
       <r>   -5.3075    1.0000 </r>
       <r>   -5.1989    1.0000 </r>
       <r>   -5.0576    1.0000 </r>
       <r>   -5.0366    1.0000 </r>
       <r>   -4.9837    1.0000 </r>
       <r>   -4.7842    1.0000 </r>
       <r>   -4.7313    1.0000 </r>
       <r>   -4.6891    1.0000 </r>
       <r>   -4.6538    1.0000 </r>
       <r>   -4.5130    1.0000 </r>
       <r>   -4.4600    1.0000 </r>
       <r>   -4.4073    1.0000 </r>
       <r>   -4.3442    1.0000 </r>
       <r>   -4.2381    1.0000 </r>
       <r>   -4.1502    1.0000 </r>
       <r>   -4.0788    1.0000 </r>
       <r>   -3.9809    1.0000 </r>
       <r>   -3.9052    1.0000 </r>
       <r>   -3.8103    1.0000 </r>
       <r>   -3.7737    1.0000 </r>
       <r>   -3.7286    1.0000 </r>
       <r>   -3.7056    1.0000 </r>
       <r>   -3.6250    1.0000 </r>
       <r>   -3.5987    1.0000 </r>
       <r>   -3.5578    1.0000 </r>
       <r>   -3.4843    1.0000 </r>
       <r>   -3.3758    1.0000 </r>
       <r>   -3.3422    1.0000 </r>
       <r>   -3.3101    1.0000 </r>
       <r>   -3.2252    1.0000 </r>
       <r>   -3.1733    1.0000 </r>
       <r>   -3.0262    1.0000 </r>
       <r>   -2.9837    1.0000 </r>
       <r>   -2.9541    1.0000 </r>
       <r>   -2.8668    1.0000 </r>
       <r>   -2.7750    1.0000 </r>
       <r>   -2.7585    1.0000 </r>
       <r>   -2.5529    1.0000 </r>
       <r>   -2.4608    1.0000 </r>
       <r>   -2.3909    1.0000 </r>
       <r>   -2.3576    1.0000 </r>
       <r>   -2.2887    1.0000 </r>
       <r>   -2.2439    1.0000 </r>
       <r>   -2.1509    1.0000 </r>
       <r>   -2.0625    1.0000 </r>
       <r>   -1.9731    1.0000 </r>
       <r>   -1.9383    1.0000 </r>
       <r>   -1.8886    1.0000 </r>
       <r>   -1.8632    1.0000 </r>
       <r>   -1.8033    1.0000 </r>
       <r>   -1.6619    1.0000 </r>
       <r>   -1.4887    1.0000 </r>
       <r>   -1.3202    1.0010 </r>
       <r>   -1.2433    1.0050 </r>
       <r>   -1.2186    1.0076 </r>
       <r>   -1.1416    1.0217 </r>
       <r>   -0.9441    0.9383 </r>
       <r>   -0.8374    0.5923 </r>
       <r>   -0.7950    0.4138 </r>
       <r>   -0.7760    0.3363 </r>
       <r>   -0.6792    0.0468 </r>
       <r>   -0.5286   -0.0304 </r>
       <r>   -0.5024   -0.0247 </r>
       <r>   -0.2153   -0.0001 </r>
       <r>    0.6849   -0.0000 </r>
       <r>    1.0176   -0.0000 </r>
       <r>    1.0562   -0.0000 </r>
       <r>    1.8036   -0.0000 </r>
       <r>    1.9537   -0.0000 </r>
       <r>    2.0537   -0.0000 </r>
       <r>    2.4698   -0.0000 </r>
       <r>    3.0286   -0.0000 </r>
       <r>    3.5689   -0.0000 </r>
       <r>    4.0002   -0.0000 </r>
      </set>
      <set comment="kpoint 11">
       <r>   -8.8962    1.0000 </r>
       <r>   -7.9108    1.0000 </r>
       <r>   -7.7221    1.0000 </r>
       <r>   -7.1462    1.0000 </r>
       <r>   -6.7840    1.0000 </r>
       <r>   -6.7750    1.0000 </r>
       <r>   -6.6238    1.0000 </r>
       <r>   -6.5750    1.0000 </r>
       <r>   -6.5476    1.0000 </r>
       <r>   -6.5346    1.0000 </r>
       <r>   -6.4856    1.0000 </r>
       <r>   -6.2470    1.0000 </r>
       <r>   -6.1859    1.0000 </r>
       <r>   -6.0798    1.0000 </r>
       <r>   -6.0569    1.0000 </r>
       <r>   -5.9923    1.0000 </r>
       <r>   -5.8433    1.0000 </r>
       <r>   -5.6935    1.0000 </r>
       <r>   -5.5368    1.0000 </r>
       <r>   -5.4414    1.0000 </r>
       <r>   -5.3944    1.0000 </r>
       <r>   -5.3530    1.0000 </r>
       <r>   -5.2933    1.0000 </r>
       <r>   -5.2183    1.0000 </r>
       <r>   -5.0584    1.0000 </r>
       <r>   -5.0359    1.0000 </r>
       <r>   -4.9788    1.0000 </r>
       <r>   -4.7782    1.0000 </r>
       <r>   -4.7426    1.0000 </r>
       <r>   -4.6805    1.0000 </r>
       <r>   -4.6449    1.0000 </r>
       <r>   -4.5088    1.0000 </r>
       <r>   -4.4688    1.0000 </r>
       <r>   -4.4131    1.0000 </r>
       <r>   -4.3583    1.0000 </r>
       <r>   -4.2329    1.0000 </r>
       <r>   -4.1397    1.0000 </r>
       <r>   -4.0929    1.0000 </r>
       <r>   -3.9821    1.0000 </r>
       <r>   -3.9014    1.0000 </r>
       <r>   -3.8205    1.0000 </r>
       <r>   -3.7533    1.0000 </r>
       <r>   -3.7178    1.0000 </r>
       <r>   -3.6730    1.0000 </r>
       <r>   -3.6467    1.0000 </r>
       <r>   -3.6180    1.0000 </r>
       <r>   -3.5536    1.0000 </r>
       <r>   -3.4922    1.0000 </r>
       <r>   -3.3813    1.0000 </r>
       <r>   -3.3432    1.0000 </r>
       <r>   -3.2946    1.0000 </r>
       <r>   -3.2249    1.0000 </r>
       <r>   -3.1946    1.0000 </r>
       <r>   -3.0280    1.0000 </r>
       <r>   -3.0083    1.0000 </r>
       <r>   -2.9212    1.0000 </r>
       <r>   -2.8604    1.0000 </r>
       <r>   -2.7787    1.0000 </r>
       <r>   -2.7518    1.0000 </r>
       <r>   -2.5584    1.0000 </r>
       <r>   -2.4872    1.0000 </r>
       <r>   -2.3963    1.0000 </r>
       <r>   -2.3449    1.0000 </r>
       <r>   -2.2548    1.0000 </r>
       <r>   -2.2160    1.0000 </r>
       <r>   -2.1598    1.0000 </r>
       <r>   -2.0922    1.0000 </r>
       <r>   -2.0094    1.0000 </r>
       <r>   -1.9415    1.0000 </r>
       <r>   -1.8801    1.0000 </r>
       <r>   -1.8488    1.0000 </r>
       <r>   -1.7665    1.0000 </r>
       <r>   -1.6497    1.0000 </r>
       <r>   -1.4487    1.0000 </r>
       <r>   -1.4036    1.0001 </r>
       <r>   -1.3128    1.0012 </r>
       <r>   -1.2173    1.0078 </r>
       <r>   -1.0595    1.0355 </r>
       <r>   -0.9141    0.8662 </r>
       <r>   -0.8834    0.7699 </r>
       <r>   -0.8064    0.4616 </r>
       <r>   -0.7272    0.1637 </r>
       <r>   -0.6767    0.0422 </r>
       <r>   -0.5815   -0.0350 </r>
       <r>   -0.4797   -0.0195 </r>
       <r>   -0.2156   -0.0001 </r>
       <r>    0.6843   -0.0000 </r>
       <r>    1.0155   -0.0000 </r>
       <r>    1.0594   -0.0000 </r>
       <r>    1.7721   -0.0000 </r>
       <r>    1.9633   -0.0000 </r>
       <r>    2.1067   -0.0000 </r>
       <r>    2.4362   -0.0000 </r>
       <r>    3.0260   -0.0000 </r>
       <r>    3.5764   -0.0000 </r>
       <r>    3.9978   -0.0000 </r>
      </set>
      <set comment="kpoint 12">
       <r>   -8.5456    1.0000 </r>
       <r>   -8.2053    1.0000 </r>
       <r>   -7.4675    1.0000 </r>
       <r>   -7.2592    1.0000 </r>
       <r>   -6.6812    1.0000 </r>
       <r>   -6.6700    1.0000 </r>
       <r>   -6.5482    1.0000 </r>
       <r>   -6.4889    1.0000 </r>
       <r>   -6.4445    1.0000 </r>
       <r>   -6.3654    1.0000 </r>
       <r>   -6.3400    1.0000 </r>
       <r>   -6.2121    1.0000 </r>
       <r>   -6.1495    1.0000 </r>
       <r>   -6.0353    1.0000 </r>
       <r>   -5.8852    1.0000 </r>
       <r>   -5.7790    1.0000 </r>
       <r>   -5.6918    1.0000 </r>
       <r>   -5.6516    1.0000 </r>
       <r>   -5.5814    1.0000 </r>
       <r>   -5.4889    1.0000 </r>
       <r>   -5.3528    1.0000 </r>
       <r>   -5.2695    1.0000 </r>
       <r>   -5.2444    1.0000 </r>
       <r>   -5.2189    1.0000 </r>
       <r>   -5.1202    1.0000 </r>
       <r>   -5.0630    1.0000 </r>
       <r>   -5.0272    1.0000 </r>
       <r>   -4.9318    1.0000 </r>
       <r>   -4.8038    1.0000 </r>
       <r>   -4.7020    1.0000 </r>
       <r>   -4.6427    1.0000 </r>
       <r>   -4.5831    1.0000 </r>
       <r>   -4.5580    1.0000 </r>
       <r>   -4.4870    1.0000 </r>
       <r>   -4.4157    1.0000 </r>
       <r>   -4.2741    1.0000 </r>
       <r>   -4.1263    1.0000 </r>
       <r>   -4.0796    1.0000 </r>
       <r>   -4.0552    1.0000 </r>
       <r>   -3.9724    1.0000 </r>
       <r>   -3.8832    1.0000 </r>
       <r>   -3.8264    1.0000 </r>
       <r>   -3.7946    1.0000 </r>
       <r>   -3.6922    1.0000 </r>
       <r>   -3.6860    1.0000 </r>
       <r>   -3.6590    1.0000 </r>
       <r>   -3.6113    1.0000 </r>
       <r>   -3.5993    1.0000 </r>
       <r>   -3.5156    1.0000 </r>
       <r>   -3.4997    1.0000 </r>
       <r>   -3.3862    1.0000 </r>
       <r>   -3.3410    1.0000 </r>
       <r>   -3.1419    1.0000 </r>
       <r>   -3.0719    1.0000 </r>
       <r>   -2.9686    1.0000 </r>
       <r>   -2.9022    1.0000 </r>
       <r>   -2.8557    1.0000 </r>
       <r>   -2.8074    1.0000 </r>
       <r>   -2.7409    1.0000 </r>
       <r>   -2.6444    1.0000 </r>
       <r>   -2.5976    1.0000 </r>
       <r>   -2.4912    1.0000 </r>
       <r>   -2.3541    1.0000 </r>
       <r>   -2.3272    1.0000 </r>
       <r>   -2.2808    1.0000 </r>
       <r>   -2.2534    1.0000 </r>
       <r>   -2.1544    1.0000 </r>
       <r>   -2.0845    1.0000 </r>
       <r>   -2.0298    1.0000 </r>
       <r>   -1.9880    1.0000 </r>
       <r>   -1.9322    1.0000 </r>
       <r>   -1.8732    1.0000 </r>
       <r>   -1.7912    1.0000 </r>
       <r>   -1.6075    1.0000 </r>
       <r>   -1.4680    1.0000 </r>
       <r>   -1.3416    1.0006 </r>
       <r>   -1.2406    1.0052 </r>
       <r>   -1.0645    1.0354 </r>
       <r>   -0.9097    0.8538 </r>
       <r>   -0.8360    0.5863 </r>
       <r>   -0.7777    0.3431 </r>
       <r>   -0.7052    0.1029 </r>
       <r>   -0.5978   -0.0320 </r>
       <r>   -0.5788   -0.0352 </r>
       <r>   -0.4880   -0.0213 </r>
       <r>   -0.4092   -0.0072 </r>
       <r>    0.7115   -0.0000 </r>
       <r>    1.0846   -0.0000 </r>
       <r>    1.3283   -0.0000 </r>
       <r>    1.6572   -0.0000 </r>
       <r>    1.7831   -0.0000 </r>
       <r>    2.1416   -0.0000 </r>
       <r>    2.4658   -0.0000 </r>
       <r>    3.5759   -0.0000 </r>
       <r>    3.6269   -0.0000 </r>
       <r>    4.0105   -0.0000 </r>
      </set>
      <set comment="kpoint 13">
       <r>   -8.5452    1.0000 </r>
       <r>   -8.2053    1.0000 </r>
       <r>   -7.4669    1.0000 </r>
       <r>   -7.2607    1.0000 </r>
       <r>   -6.6797    1.0000 </r>
       <r>   -6.6673    1.0000 </r>
       <r>   -6.5433    1.0000 </r>
       <r>   -6.4752    1.0000 </r>
       <r>   -6.4581    1.0000 </r>
       <r>   -6.3706    1.0000 </r>
       <r>   -6.3479    1.0000 </r>
       <r>   -6.2077    1.0000 </r>
       <r>   -6.1478    1.0000 </r>
       <r>   -6.0383    1.0000 </r>
       <r>   -5.8836    1.0000 </r>
       <r>   -5.7786    1.0000 </r>
       <r>   -5.6880    1.0000 </r>
       <r>   -5.6544    1.0000 </r>
       <r>   -5.5802    1.0000 </r>
       <r>   -5.5016    1.0000 </r>
       <r>   -5.3456    1.0000 </r>
       <r>   -5.2780    1.0000 </r>
       <r>   -5.2377    1.0000 </r>
       <r>   -5.2082    1.0000 </r>
       <r>   -5.1186    1.0000 </r>
       <r>   -5.0653    1.0000 </r>
       <r>   -5.0358    1.0000 </r>
       <r>   -4.9258    1.0000 </r>
       <r>   -4.8030    1.0000 </r>
       <r>   -4.7171    1.0000 </r>
       <r>   -4.6561    1.0000 </r>
       <r>   -4.5725    1.0000 </r>
       <r>   -4.5527    1.0000 </r>
       <r>   -4.4778    1.0000 </r>
       <r>   -4.4104    1.0000 </r>
       <r>   -4.2722    1.0000 </r>
       <r>   -4.1417    1.0000 </r>
       <r>   -4.0684    1.0000 </r>
       <r>   -4.0450    1.0000 </r>
       <r>   -3.9776    1.0000 </r>
       <r>   -3.8834    1.0000 </r>
       <r>   -3.8384    1.0000 </r>
       <r>   -3.7911    1.0000 </r>
       <r>   -3.7020    1.0000 </r>
       <r>   -3.6782    1.0000 </r>
       <r>   -3.6590    1.0000 </r>
       <r>   -3.6148    1.0000 </r>
       <r>   -3.5813    1.0000 </r>
       <r>   -3.5268    1.0000 </r>
[...]
       <r>   -4.4733    1.0000 </r>
       <r>   -4.4399    1.0000 </r>
       <r>   -4.3248    1.0000 </r>
       <r>   -4.2286    1.0000 </r>
       <r>   -4.1526    1.0000 </r>
       <r>   -4.1216    1.0000 </r>
       <r>   -4.0933    1.0000 </r>
       <r>   -4.0507    1.0000 </r>
       <r>   -3.9328    1.0000 </r>
       <r>   -3.8316    1.0000 </r>
       <r>   -3.7328    1.0000 </r>
       <r>   -3.7149    1.0000 </r>
       <r>   -3.6834    1.0000 </r>
       <r>   -3.6421    1.0000 </r>
       <r>   -3.6110    1.0000 </r>
       <r>   -3.5736    1.0000 </r>
       <r>   -3.4651    1.0000 </r>
       <r>   -3.3747    1.0000 </r>
       <r>   -3.3130    1.0000 </r>
       <r>   -3.1765    1.0000 </r>
       <r>   -2.9940    1.0000 </r>
       <r>   -2.9432    1.0000 </r>
       <r>   -2.8847    1.0000 </r>
       <r>   -2.8659    1.0000 </r>
       <r>   -2.8273    1.0000 </r>
       <r>   -2.6949    1.0000 </r>
       <r>   -2.6026    1.0000 </r>
       <r>   -2.5371    1.0000 </r>
       <r>   -2.4850    1.0000 </r>
       <r>   -2.4031    1.0000 </r>
       <r>   -2.3479    1.0000 </r>
       <r>   -2.2271    1.0000 </r>
       <r>   -2.1911    1.0000 </r>
       <r>   -2.1288    1.0000 </r>
       <r>   -2.0394    1.0000 </r>
       <r>   -1.9719    1.0000 </r>
       <r>   -1.9095    1.0000 </r>
       <r>   -1.8767    1.0000 </r>
       <r>   -1.8032    1.0000 </r>
       <r>   -1.7067    1.0000 </r>
       <r>   -1.5724    1.0000 </r>
       <r>   -1.4602    1.0000 </r>
       <r>   -1.3590    1.0004 </r>
       <r>   -1.2931    1.0019 </r>
       <r>   -1.0906    1.0326 </r>
       <r>   -0.9742    0.9884 </r>
       <r>   -0.9029    0.8336 </r>
       <r>   -0.8671    0.7105 </r>
       <r>   -0.7673    0.3026 </r>
       <r>   -0.6907    0.0695 </r>
       <r>   -0.5933   -0.0331 </r>
       <r>   -0.4299   -0.0100 </r>
       <r>   -0.4092   -0.0072 </r>
       <r>    0.2033   -0.0000 </r>
       <r>    0.4918   -0.0000 </r>
       <r>    1.4433   -0.0000 </r>
       <r>    1.5134   -0.0000 </r>
       <r>    1.6069   -0.0000 </r>
       <r>    2.3512   -0.0000 </r>
       <r>    3.1426   -0.0000 </r>
       <r>    3.4322   -0.0000 </r>
       <r>    3.9313   -0.0000 </r>
       <r>    3.9899   -0.0000 </r>
      </set>
     </set>
    </set>
   </array>
  </eigenvalues>
  <separator name="orbital magnetization" >
   <v name="MAGDIPOLOUT">      0.00000000      0.00000000      0.00000000</v>
  </separator>
  <dos>
   <i name="efermi">     -0.81548579 </i>
   <total>
    <array>
     <dimension dim="1">gridpoints</dimension>
     <dimension dim="2">spin</dimension>
     <field>energy</field>
     <field>total</field>
     <field>integrated</field>
     <set>
      <set comment="spin 1">
       <r>   -12.1931     0.0000     0.0000 </r>
       <r>   -12.1308     0.0000     0.0000 </r>
       <r>   -12.0686     0.0000     0.0000 </r>
       <r>   -12.0063     0.0000     0.0000 </r>
       <r>   -11.9440     0.0000     0.0000 </r>
       <r>   -11.8817     0.0000     0.0000 </r>
       <r>   -11.8194    -0.0000    -0.0000 </r>
       <r>   -11.7571    -0.0000    -0.0000 </r>
       <r>   -11.6948    -0.0000    -0.0000 </r>
       <r>   -11.6326    -0.0000    -0.0000 </r>
       <r>   -11.5703    -0.0000    -0.0000 </r>
       <r>   -11.5080    -0.0000    -0.0000 </r>
       <r>   -11.4457    -0.0000    -0.0000 </r>
       <r>   -11.3834    -0.0000    -0.0000 </r>
       <r>   -11.3211    -0.0000    -0.0000 </r>
       <r>   -11.2588    -0.0000    -0.0000 </r>
       <r>   -11.1965    -0.0000    -0.0000 </r>
       <r>   -11.1343    -0.0000    -0.0000 </r>
       <r>   -11.0720    -0.0000    -0.0000 </r>
       <r>   -11.0097    -0.0000    -0.0000 </r>
       <r>   -10.9474    -0.0000    -0.0000 </r>
       <r>   -10.8851    -0.0000    -0.0000 </r>
       <r>   -10.8228    -0.0000    -0.0000 </r>
       <r>   -10.7605    -0.0002    -0.0000 </r>
       <r>   -10.6983    -0.0010    -0.0001 </r>
       <r>   -10.6360    -0.0035    -0.0003 </r>
       <r>   -10.5737    -0.0098    -0.0009 </r>
       <r>   -10.5114    -0.0204    -0.0022 </r>
       <r>   -10.4491    -0.0284    -0.0039 </r>
       <r>   -10.3868    -0.0122    -0.0047 </r>
       <r>   -10.3245     0.0584    -0.0011 </r>
       <r>   -10.2622     0.1990     0.0113 </r>
       <r>   -10.2000     0.3897     0.0356 </r>
       <r>   -10.1377     0.5872     0.0722 </r>
       <r>   -10.0754     0.7564     0.1193 </r>
       <r>   -10.0131     0.8780     0.1740 </r>
       <r>    -9.9508     0.9343     0.2322 </r>
       <r>    -9.8885     0.9130     0.2891 </r>
       <r>    -9.8262     0.8335     0.3410 </r>
       <r>    -9.7640     0.7572     0.3881 </r>
       <r>    -9.7017     0.7598     0.4355 </r>
       <r>    -9.6394     0.8696     0.4896 </r>
       <r>    -9.5771     1.0201     0.5532 </r>
       <r>    -9.5148     1.0949     0.6214 </r>
       <r>    -9.4525     1.0421     0.6863 </r>
       <r>    -9.3902     0.9180     0.7434 </r>
       <r>    -9.3280     0.8068     0.7937 </r>
       <r>    -9.2657     0.7432     0.8400 </r>
       <r>    -9.2034     0.7364     0.8859 </r>
       <r>    -9.1411     0.8239     0.9372 </r>
       <r>    -9.0788     1.0406     1.0020 </r>
       <r>    -9.0165     1.3392     1.0854 </r>
       <r>    -8.9542     1.5997     1.1851 </r>
       <r>    -8.8919     1.7447     1.2937 </r>
       <r>    -8.8297     1.8050     1.4062 </r>
       <r>    -8.7674     1.8432     1.5210 </r>
       <r>    -8.7051     1.8547     1.6365 </r>
       <r>    -8.6428     1.8009     1.7487 </r>
       <r>    -8.5805     1.7195     1.8558 </r>
       <r>    -8.5182     1.7412     1.9642 </r>
       <r>    -8.4559     1.9711     2.0870 </r>
       <r>    -8.3937     2.3560     2.2337 </r>
       <r>    -8.3314     2.6808     2.4007 </r>
       <r>    -8.2691     2.7413     2.5714 </r>
       <r>    -8.2068     2.5401     2.7297 </r>
       <r>    -8.1445     2.2693     2.8710 </r>
       <r>    -8.0822     2.0968     3.0016 </r>
       <r>    -8.0199     2.0517     3.1294 </r>
       <r>    -7.9576     2.1543     3.2636 </r>
       <r>    -7.8954     2.5467     3.4222 </r>
       <r>    -7.8331     3.3535     3.6311 </r>
       <r>    -7.7708     4.4212     3.9065 </r>
       <r>    -7.7085     5.3578     4.2402 </r>
       <r>    -7.6462     5.9356     4.6099 </r>
       <r>    -7.5839     6.3628     5.0062 </r>
       <r>    -7.5216     7.0379     5.4446 </r>
       <r>    -7.4594     8.1338     5.9512 </r>
       <r>    -7.3971     9.5566     6.5465 </r>
       <r>    -7.3348    11.1486     7.2409 </r>
       <r>    -7.2725    12.6891     8.0312 </r>
       <r>    -7.2102    13.7952     8.8905 </r>
       <r>    -7.1479    14.0895     9.7681 </r>
       <r>    -7.0856    13.5386    10.6113 </r>
       <r>    -7.0233    12.5944    11.3958 </r>
       <r>    -6.9611    12.0183    12.1444 </r>
       <r>    -6.8988    12.5098    12.9236 </r>
       <r>    -6.8365    14.3207    13.8156 </r>
       <r>    -6.7742    17.0859    14.8798 </r>
       <r>    -6.7119    20.0469    16.1284 </r>
       <r>    -6.6496    22.5246    17.5314 </r>
       <r>    -6.5873    24.1816    19.0376 </r>
       <r>    -6.5251    24.8863    20.5877 </r>
       <r>    -6.4628    24.6092    22.1205 </r>
       <r>    -6.4005    23.6396    23.5929 </r>
       <r>    -6.3382    22.6339    25.0027 </r>
       <r>    -6.2759    22.0980    26.3791 </r>
       <r>    -6.2136    21.8542    27.7403 </r>
       <r>    -6.1513    21.2187    29.0620 </r>
       <r>    -6.0891    19.7137    30.2899 </r>
       <r>    -6.0268    17.5443    31.3827 </r>
       <r>    -5.9645    15.4447    32.3447 </r>
       <r>    -5.9022    14.1611    33.2267 </r>
       <r>    -5.8399    14.0767    34.1035 </r>
       <r>    -5.7776    15.1641    35.0480 </r>
       <r>    -5.7153    17.0582    36.1105 </r>
       <r>    -5.6530    19.1119    37.3009 </r>
       <r>    -5.5908    20.5804    38.5828 </r>
       <r>    -5.5285    20.9920    39.8903 </r>
       <r>    -5.4662    20.4464    41.1639 </r>
       <r>    -5.4039    19.5541    42.3818 </r>
       <r>    -5.3416    19.0150    43.5662 </r>
       <r>    -5.2793    19.1350    44.7581 </r>
       <r>    -5.2170    19.6904    45.9845 </r>
       <r>    -5.1548    20.2490    47.2457 </r>
       <r>    -5.0925    20.5669    48.5268 </r>
       <r>    -5.0302    20.6752    49.8146 </r>
       <r>    -4.9679    20.7340    51.1060 </r>
       <r>    -4.9056    20.9127    52.4086 </r>
       <r>    -4.8433    21.3528    53.7386 </r>
       <r>    -4.7810    22.1720    55.1196 </r>
       <r>    -4.7187    23.4762    56.5819 </r>
       <r>    -4.6565    25.2527    58.1548 </r>
       <r>    -4.5942    27.1306    59.8446 </r>
       <r>    -4.5319    28.3553    61.6108 </r>
       <r>    -4.4696    28.3141    63.3744 </r>
       <r>    -4.4073    27.2594    65.0723 </r>
       <r>    -4.3450    26.3438    66.7132 </r>
       <r>    -4.2827    26.6852    68.3753 </r>
       <r>    -4.2205    28.3717    70.1425 </r>
       <r>    -4.1582    30.4849    72.0413 </r>
       <r>    -4.0959    32.0311    74.0364 </r>
       <r>    -4.0336    32.7256    76.0747 </r>
       <r>    -3.9713    32.9637    78.1279 </r>
       <r>    -3.9090    33.2569    80.1994 </r>
       <r>    -3.8467    33.7810    82.3035 </r>
       <r>    -3.7844    34.3399    84.4424 </r>
       <r>    -3.7222    34.5622    86.5952 </r>
       <r>    -3.6599    34.0408    88.7154 </r>
       <r>    -3.5976    32.4407    90.7361 </r>
       <r>    -3.5353    29.7273    92.5877 </r>
       <r>    -3.4730    26.3347    94.2280 </r>
       <r>    -3.4107    22.9679    95.6586 </r>
       <r>    -3.3484    20.1888    96.9160 </r>
       <r>    -3.2862    18.2322    98.0517 </r>
       <r>    -3.2239    17.1889    99.1223 </r>
       <r>    -3.1616    17.2454   100.1965 </r>
       <r>    -3.0993    18.6389   101.3574 </r>
       <r>    -3.0370    21.3034   102.6843 </r>
       <r>    -2.9747    24.5603   104.2141 </r>
       <r>    -2.9124    27.2779   105.9132 </r>
       <r>    -2.8501    28.4786   107.6870 </r>
       <r>    -2.7879    27.8924   109.4243 </r>
       <r>    -2.7256    26.0458   111.0466 </r>
       <r>    -2.6633    23.9112   112.5360 </r>
       <r>    -2.6010    22.3605   113.9287 </r>
       <r>    -2.5387    21.7553   115.2838 </r>
       <r>    -2.4764    21.9436   116.6506 </r>
       <r>    -2.4141    22.5394   118.0545 </r>
       <r>    -2.3519    23.1416   119.4959 </r>
       <r>    -2.2896    23.4827   120.9585 </r>
       <r>    -2.2273    23.5994   122.4285 </r>
       <r>    -2.1650    23.8134   123.9117 </r>
       <r>    -2.1027    24.4395   125.4340 </r>
       <r>    -2.0404    25.5431   127.0250 </r>
       <r>    -1.9781    26.8831   128.6994 </r>
       <r>    -1.9159    27.9241   130.4387 </r>
       <r>    -1.8536    28.0576   132.1863 </r>
       <r>    -1.7913    27.1157   133.8753 </r>
       <r>    -1.7290    25.6270   135.4715 </r>
       <r>    -1.6667    24.3234   136.9865 </r>
       <r>    -1.6044    23.4489   138.4471 </r>
       <r>    -1.5421    22.7681   139.8652 </r>
       <r>    -1.4798    22.1792   141.2467 </r>
       <r>    -1.4176    22.0210   142.6183 </r>
       <r>    -1.3553    22.6703   144.0303 </r>
       <r>    -1.2930    24.0362   145.5275 </r>
       <r>    -1.2307    25.6762   147.1267 </r>
       <r>    -1.1684    27.3313   148.8291 </r>
       <r>    -1.1061    29.0513   150.6386 </r>
       <r>    -1.0438    30.7868   152.5562 </r>
       <r>    -0.9816    32.1997   154.5618 </r>
       <r>    -0.9193    32.9628   156.6150 </r>
       <r>    -0.8570    32.9210   158.6655 </r>
       <r>    -0.7947    31.8765   160.6510 </r>
       <r>    -0.7324    29.6163   162.4957 </r>
       <r>    -0.6701    26.3613   164.1377 </r>
       <r>    -0.6078    22.8539   165.5611 </r>
       <r>    -0.5455    19.7316   166.7902 </r>
       <r>    -0.4833    17.0157   167.8500 </r>
       <r>    -0.4210    14.3963   168.7467 </r>
       <r>    -0.3587    11.8081   169.4822 </r>
       <r>    -0.2964     9.5128   170.0747 </r>
       <r>    -0.2341     7.7737   170.5589 </r>
       <r>    -0.1718     6.6830   170.9752 </r>
       <r>    -0.1095     6.2225   171.3628 </r>
       <r>    -0.0473     6.2326   171.7510 </r>
       <r>     0.0150     6.3137   172.1442 </r>
       <r>     0.0773     6.0361   172.5202 </r>
       <r>     0.1396     5.3810   172.8554 </r>
       <r>     0.2019     4.7960   173.1541 </r>
       <r>     0.2642     4.6720   173.4451 </r>
       <r>     0.3265     4.8701   173.7484 </r>
       <r>     0.3888     4.8880   174.0529 </r>
       <r>     0.4510     4.4456   174.3298 </r>
       <r>     0.5133     3.8089   174.5670 </r>
       <r>     0.5756     3.5362   174.7873 </r>
       <r>     0.6379     3.9698   175.0345 </r>
       <r>     0.7002     4.9805   175.3448 </r>
       <r>     0.7625     6.1138   175.7256 </r>
       <r>     0.8248     6.8945   176.1550 </r>
       <r>     0.8870     7.0489   176.5941 </r>
       <r>     0.9493     6.6009   177.0052 </r>
       <r>     1.0116     5.8200   177.3677 </r>
       <r>     1.0739     5.0222   177.6805 </r>
       <r>     1.1362     4.3870   177.9538 </r>
       <r>     1.1985     3.9546   178.2001 </r>
       <r>     1.2608     3.7331   178.4326 </r>
       <r>     1.3231     3.7491   178.6662 </r>
       <r>     1.3853     4.0016   178.9154 </r>
       <r>     1.4476     4.4021   179.1896 </r>
       <r>     1.5099     4.8064   179.4890 </r>
       <r>     1.5722     5.1451   179.8094 </r>
       <r>     1.6345     5.4852   180.1511 </r>
       <r>     1.6968     5.8723   180.5169 </r>
       <r>     1.7591     6.1187   180.8980 </r>
       <r>     1.8213     5.9051   181.2658 </r>
       <r>     1.8836     5.1852   181.5887 </r>
       <r>     1.9459     4.3920   181.8623 </r>
       <r>     2.0082     4.1155   182.1186 </r>
       <r>     2.0705     4.5632   182.4029 </r>
       <r>     2.1328     5.3641   182.7370 </r>
       <r>     2.1951     5.9088   183.1050 </r>
       <r>     2.2573     5.8937   183.4721 </r>
       <r>     2.3196     5.5304   183.8166 </r>
       <r>     2.3819     5.2179   184.1416 </r>
       <r>     2.4442     5.0525   184.4563 </r>
       <r>     2.5065     4.7451   184.7518 </r>
       <r>     2.5688     4.0462   185.0039 </r>
       <r>     2.6311     3.1764   185.2017 </r>
       <r>     2.6934     2.7505   185.3730 </r>
       <r>     2.7556     3.2629   185.5763 </r>
       <r>     2.8179     4.6203   185.8641 </r>
       <r>     2.8802     6.1110   186.2447 </r>
       <r>     2.9425     6.8618   186.6721 </r>
       <r>     3.0048     6.4611   187.0745 </r>
       <r>     3.0671     5.2314   187.4004 </r>
       <r>     3.1294     3.9181   187.6444 </r>
       <r>     3.1916     3.1296   187.8393 </r>
       <r>     3.2539     3.0263   188.0278 </r>
       <r>     3.3162     3.3811   188.2384 </r>
       <r>     3.3785     3.8272   188.4768 </r>
       <r>     3.4408     4.0989   188.7321 </r>
       <r>     3.5031     4.1220   188.9889 </r>
       <r>     3.5654     3.9176   189.2329 </r>
       <r>     3.6277     3.5242   189.4524 </r>
       <r>     3.6899     3.1108   189.6462 </r>
       <r>     3.7522     3.0231   189.8345 </r>
       <r>     3.8145     3.4817   190.0513 </r>
       <r>     3.8768     4.2406   190.3155 </r>
       <r>     3.9391     4.7070   190.6086 </r>
       <r>     4.0014     4.4449   190.8855 </r>
       <r>     4.0637     3.5338   191.1056 </r>
       <r>     4.1259     2.4698   191.2594 </r>
       <r>     4.1882     1.7555   191.3688 </r>
       <r>     4.2505     1.5666   191.4664 </r>
       <r>     4.3128     1.7366   191.5745 </r>
       <r>     4.3751     1.9528   191.6962 </r>
       <r>     4.4374     1.9429   191.8172 </r>
       <r>     4.4997     1.5977   191.9167 </r>
       <r>     4.5620     1.0230   191.9804 </r>
       <r>     4.6242     0.4556   192.0088 </r>
       <r>     4.6865     0.0825   192.0139 </r>
       <r>     4.7488    -0.0675   192.0097 </r>
       <r>     4.8111    -0.0796   192.0048 </r>
       <r>     4.8734    -0.0477   192.0018 </r>
       <r>     4.9357    -0.0203   192.0005 </r>
       <r>     4.9980    -0.0066   192.0001 </r>
       <r>     5.0602    -0.0017   192.0000 </r>
       <r>     5.1225    -0.0004   192.0000 </r>
       <r>     5.1848    -0.0001   192.0000 </r>
       <r>     5.2471    -0.0000   192.0000 </r>
       <r>     5.3094    -0.0000   192.0000 </r>
       <r>     5.3717    -0.0000   192.0000 </r>
       <r>     5.4340    -0.0000   192.0000 </r>
       <r>     5.4962    -0.0000   192.0000 </r>
       <r>     5.5585    -0.0000   192.0000 </r>
       <r>     5.6208    -0.0000   192.0000 </r>
       <r>     5.6831    -0.0000   192.0000 </r>
       <r>     5.7454    -0.0000   192.0000 </r>
       <r>     5.8077     0.0000   192.0000 </r>
       <r>     5.8700     0.0000   192.0000 </r>
       <r>     5.9323     0.0000   192.0000 </r>
       <r>     5.9945     0.0000   192.0000 </r>
       <r>     6.0568     0.0000   192.0000 </r>
       <r>     6.1191     0.0000   192.0000 </r>
       <r>     6.1814     0.0000   192.0000 </r>
       <r>     6.2437     0.0000   192.0000 </r>
       <r>     6.3060     0.0000   192.0000 </r>
       <r>     6.3683     0.0000   192.0000 </r>
       <r>     6.4305     0.0000   192.0000 </r>
       <r>     6.4928     0.0000   192.0000 </r>
      </set>
     </set>
    </array>
   </total>
  </dos>
 </calculation>
 <structure name="finalpos" >
  <crystal>
   <varray name="basis" >
    <v>       5.55785930       0.00000000       0.00000000 </v>
    <v>       2.77892965       4.81324734       0.00000000 </v>
    <v>       0.00000000       0.00000000      30.80695967 </v>
   </varray>
   <i name="volume">    824.12780743 </i>
   <varray name="rec_basis" >
    <v>       0.17992539      -0.10387997       0.00000000 </v>
    <v>       0.00000000       0.20775994       0.00000000 </v>
    <v>       0.00000000       0.00000000       0.03246020 </v>
   </varray>
  </crystal>
  <varray name="positions" >
   <v>       0.00000000       0.00000000       0.38952237 </v>
   <v>       0.50000000       0.00000000       0.38952237 </v>
   <v>       0.00000000       0.50000000       0.38952237 </v>
   <v>       0.50000000       0.50000000       0.38952237 </v>
   <v>       0.16666667       0.16666667       0.46468540 </v>
   <v>       0.66666667       0.16666667       0.46468540 </v>
   <v>       0.16666667       0.66666667       0.46468540 </v>
   <v>       0.66666667       0.66666667       0.46468540 </v>
   <v>       0.83333333       0.33333333       0.53920296 </v>
   <v>       0.33333333       0.33333333       0.53920296 </v>
   <v>       0.83333333       0.83333333       0.53920296 </v>
   <v>       0.33333333       0.83333333       0.53920296 </v>
   <v>       0.00000000       0.00000000       0.61486043 </v>
   <v>       0.50000000       0.00000000       0.61486043 </v>
   <v>       0.00000000       0.50000000       0.61486043 </v>
   <v>       0.50000000       0.50000000       0.61486043 </v>
  </varray>
  <varray name="selective"  type="logical" >
   <v type="logical" >  F  F  F </v>
   <v type="logical" >  F  F  F </v>
   <v type="logical" >  F  F  F </v>
   <v type="logical" >  F  F  F </v>
   <v type="logical" >  T  T  T </v>
   <v type="logical" >  T  T  T </v>
   <v type="logical" >  T  T  T </v>
   <v type="logical" >  T  T  T </v>
   <v type="logical" >  T  T  T </v>
   <v type="logical" >  T  T  T </v>
   <v type="logical" >  T  T  T </v>
   <v type="logical" >  T  T  T </v>
   <v type="logical" >  T  T  T </v>
   <v type="logical" >  T  T  T </v>
   <v type="logical" >  T  T  T </v>
   <v type="logical" >  T  T  T </v>
  </varray>
  <nose>
   <v>      -3.00000000       0.00000000       0.00010000       0.00010000 </v>
  </nose>
 </structure>
</modeling>
