   16   16    1    1
  0.5150799E+02  0.5557859E-09  0.5557859E-09  0.3080696E-08  0.5000000E-15
  1.000000000000000E-004
  CAR 
 unknown system                          
    160     52     96
 
  0.6250000E-01  0.6250000E-01  0.0000000E+00  0.2083333E-01
    1      -10.252414   1.000000
    2       -8.942101   1.000000
    3       -7.841811   1.000000
    4       -7.794140   1.000000
    5       -7.581122   1.000000
    6       -7.566125   1.000000
    7       -7.493414   1.000000
    8       -7.435058   1.000000
    9       -7.426498   1.000000
   10       -7.324563   1.000000
   11       -6.976143   1.000000
   12       -6.964072   1.000000
   13       -6.905689   1.000000
   14       -6.671069   1.000000
   15       -6.648176   1.000000
   16       -6.619518   1.000000
   17       -6.529666   1.000000
   18       -6.508059   1.000000
   19       -6.503313   1.000000
   20       -5.761801   1.000000
   21       -5.749066   1.000000
   22       -5.688900   1.000000
   23       -4.985921   1.000000
   24       -4.846238   1.000000
   25       -4.844047   1.000000
   26       -4.745536   1.000000
   27       -4.739564   1.000000
   28       -4.716404   1.000000
   29       -4.660516   1.000000
   30       -4.562106   1.000000
   31       -4.482886   1.000000
   32       -4.472761   1.000000
   33       -4.341864   1.000000
   34       -4.317559   1.000000
   35       -4.176611   1.000000
   36       -4.165018   1.000000
   37       -3.980254   1.000000
   38       -3.841461   1.000000
   39       -3.797634   1.000000
   40       -3.773532   1.000000
   41       -3.708402   1.000000
   42       -3.597076   1.000000
   43       -3.550522   1.000000
   44       -3.488950   1.000000
   45       -3.413293   1.000000
   46       -3.146792   1.000000
   47       -3.055818   1.000000
   48       -2.958226   1.000000
   49       -2.901112   1.000000
   50       -2.835619   1.000000
   51       -2.731257   1.000000
   52       -2.486103   1.000000
   53       -2.480174   1.000000
   54       -2.030102   1.000000
   55       -1.996213   1.000000
   56       -1.802185   1.000000
   57       -1.710917   1.000000
   58       -1.690827   1.000000
   59       -1.662169   1.000000
   60       -1.638024   1.000000
   61       -1.568691   1.000005
   62       -1.511974   1.000028
   63       -1.279826   1.006847
   64       -1.253716   1.010372
   65       -1.197431   1.021452
   66       -1.176088   1.026371
   67       -1.129544   1.034756
   68       -1.100977   1.034580
   69       -1.044732   1.006162
   70       -0.991595   0.922643
   71       -0.964231   0.852643
   72       -0.940125   0.776040
   73       -0.800811   0.224317
   74       -0.769749   0.128075
   75       -0.729790   0.039037
   76       -0.705622   0.004071
   77       -0.641995  -0.034283
   78       -0.525783  -0.017549
   79       -0.409470  -0.002649
   80       -0.340795  -0.000583
   81       -0.310725  -0.000276
   82       -0.243363  -0.000043
   83       -0.109198  -0.000001
   84       -0.038065  -0.000000
   85        0.013138  -0.000000
   86        0.030375  -0.000000
   87        0.335871  -0.000000
   88        0.413130  -0.000000
   89        1.116942  -0.000000
   90        1.471235  -0.000000
   91        1.521169  -0.000000
   92        1.614926  -0.000000
   93        1.729469  -0.000000
   94        1.770823  -0.000000
   95        2.481469  -0.000000
   96        2.525444  -0.000000
 
 -0.6250000E-01  0.1040834E-16  0.0000000E+00  0.1041667E-01
    1      -10.252414   1.000000
    2       -8.942102   1.000000
    3       -7.841818   1.000000
    4       -7.794170   1.000000
    5       -7.584430   1.000000
    6       -7.561660   1.000000
    7       -7.494522   1.000000
    8       -7.434719   1.000000
    9       -7.426777   1.000000
   10       -7.324735   1.000000
   11       -6.976280   1.000000
   12       -6.963797   1.000000
   13       -6.905758   1.000000
   14       -6.675137   1.000000
   15       -6.638480   1.000000
   16       -6.624950   1.000000
   17       -6.528211   1.000000
   18       -6.514150   1.000000
   19       -6.498869   1.000000
   20       -5.760538   1.000000
   21       -5.750002   1.000000
   22       -5.689208   1.000000
   23       -4.986438   1.000000
   24       -4.844644   1.000000
   25       -4.841176   1.000000
   26       -4.760014   1.000000
   27       -4.727423   1.000000
   28       -4.716179   1.000000
   29       -4.662328   1.000000
   30       -4.561674   1.000000
   31       -4.479162   1.000000
   32       -4.477419   1.000000
   33       -4.345439   1.000000
   34       -4.314148   1.000000
   35       -4.171685   1.000000
   36       -4.169466   1.000000
   37       -3.980349   1.000000
   38       -3.839570   1.000000
   39       -3.799505   1.000000
   40       -3.772618   1.000000
   41       -3.709516   1.000000
   42       -3.597536   1.000000
   43       -3.554445   1.000000
   44       -3.481707   1.000000
   45       -3.416332   1.000000
   46       -3.110485   1.000000
   47       -3.108060   1.000000
   48       -2.945479   1.000000
   49       -2.908079   1.000000
   50       -2.798245   1.000000
   51       -2.757631   1.000000
   52       -2.484160   1.000000
   53       -2.481744   1.000000
   54       -2.019534   1.000000
   55       -2.010359   1.000000
   56       -1.796482   1.000000
   57       -1.717159   1.000000
   58       -1.676670   1.000000
   59       -1.667872   1.000000
   60       -1.639999   1.000000
   61       -1.578565   1.000003
   62       -1.502380   1.000037
   63       -1.257761   1.009755
   64       -1.243316   1.012078
   65       -1.223727   1.015750
   66       -1.191314   1.022858
   67       -1.150119   1.031826
   68       -1.109877   1.035337
   69       -1.021569   0.977849
   70       -1.013762   0.965579
   71       -0.940941   0.778842
   72       -0.906338   0.649313
   73       -0.810574   0.258915
   74       -0.770045   0.128885
   75       -0.756023   0.092963
   76       -0.669636  -0.025527
   77       -0.665751  -0.027382
   78       -0.524770  -0.017334
   79       -0.403015  -0.002325
   80       -0.345218  -0.000648
   81       -0.308646  -0.000261
   82       -0.243623  -0.000043
   83       -0.110416  -0.000001
   84       -0.036715  -0.000000
   85        0.015297  -0.000000
   86        0.025408  -0.000000
   87        0.336929  -0.000000
   88        0.409817  -0.000000
   89        1.116265  -0.000000
   90        1.476961  -0.000000
   91        1.536284  -0.000000
   92        1.593886  -0.000000
   93        1.736866  -0.000000
   94        1.766644  -0.000000
   95        2.486083  -0.000000
   96        2.518941  -0.000000
 
  0.1875000E+00  0.6250000E-01  0.0000000E+00  0.2083333E-01
    1      -10.048880   1.000000
    2       -8.740606   1.000000
    3       -7.635222   1.000000
    4       -7.605517   1.000000
    5       -7.548949   1.000000
    6       -7.466413   1.000000
    7       -7.358455   1.000000
    8       -7.330630   1.000000
    9       -7.290121   1.000000
   10       -7.181715   1.000000
   11       -6.875951   1.000000
   12       -6.860242   1.000000
   13       -6.815250   1.000000
   14       -6.621946   1.000000
   15       -6.549338   1.000000
   16       -6.445518   1.000000
   17       -6.424083   1.000000
   18       -6.378533   1.000000
   19       -6.302092   1.000000
   20       -5.697709   1.000000
   21       -5.691257   1.000000
   22       -5.633018   1.000000
   23       -4.998583   1.000000
   24       -4.914884   1.000000
   25       -4.849256   1.000000
   26       -4.836140   1.000000
   27       -4.753898   1.000000
   28       -4.682452   1.000000
   29       -4.667550   1.000000
   30       -4.592539   1.000000
   31       -4.540162   1.000000
   32       -4.354868   1.000000
   33       -4.240573   1.000000
   34       -4.226073   1.000000
   35       -4.146435   1.000000
   36       -4.111658   1.000000
   37       -3.977876   1.000000
   38       -3.952131   1.000000
   39       -3.935030   1.000000
   40       -3.738334   1.000000
   41       -3.691684   1.000000
   42       -3.673508   1.000000
   43       -3.644471   1.000000
   44       -3.595150   1.000000
   45       -3.561516   1.000000
   46       -3.446668   1.000000
   47       -3.285867   1.000000
   48       -3.134994   1.000000
   49       -2.906680   1.000000
   50       -2.806741   1.000000
   51       -2.703204   1.000000
   52       -2.576207   1.000000
   53       -2.528463   1.000000
   54       -2.154818   1.000000
   55       -2.039747   1.000000
   56       -1.980766   1.000000
   57       -1.927289   1.000000
   58       -1.910566   1.000000
   59       -1.874723   1.000000
   60       -1.822014   1.000000
   61       -1.763002   1.000000
   62       -1.752047   1.000000
   63       -1.639607   1.000000
   64       -1.610862   1.000001
   65       -1.559083   1.000006
   66       -1.504496   1.000035
   67       -1.310674   1.003957
   68       -1.298280   1.004968
   69       -1.227668   1.014965
   70       -1.152498   1.031385
   71       -1.097682   1.034103
   72       -1.073051   1.026441
   73       -1.015591   0.968583
   74       -0.955940   0.827795
   75       -0.913651   0.678288
   76       -0.863501   0.470760
   77       -0.823265   0.306503
   78       -0.811687   0.262975
   79       -0.747115   0.072717
   80       -0.683425  -0.016994
   81       -0.563813  -0.026158
   82       -0.465427  -0.007369
   83       -0.409164  -0.002633
   84       -0.284397  -0.000137
   85       -0.225884  -0.000025
   86        0.132989  -0.000000
   87        0.241548  -0.000000
   88        0.776268  -0.000000
   89        0.819296  -0.000000
   90        1.081746  -0.000000
   91        1.254177  -0.000000
   92        1.613244  -0.000000
   93        2.078940  -0.000000
   94        2.520076  -0.000000
   95        2.938714  -0.000000
   96        3.312631  -0.000000
 
  0.1250000E+00  0.1875000E+00  0.0000000E+00  0.2083333E-01
    1      -10.048875   1.000000
    2       -8.740593   1.000000
    3       -7.635148   1.000000
    4       -7.605195   1.000000
    5       -7.547209   1.000000
    6       -7.470277   1.000000
    7       -7.358187   1.000000
    8       -7.329925   1.000000
    9       -7.289705   1.000000
   10       -7.180643   1.000000
   11       -6.872183   1.000000
   12       -6.865432   1.000000
   13       -6.814187   1.000000
   14       -6.620045   1.000000
   15       -6.553057   1.000000
   16       -6.444218   1.000000
   17       -6.424913   1.000000
   18       -6.376792   1.000000
   19       -6.302657   1.000000
   20       -5.705323   1.000000
   21       -5.686422   1.000000
   22       -5.630410   1.000000
   23       -4.995378   1.000000
   24       -4.921853   1.000000
   25       -4.851114   1.000000
   26       -4.841491   1.000000
   27       -4.749217   1.000000
   28       -4.690577   1.000000
   29       -4.659650   1.000000
   30       -4.588388   1.000000
   31       -4.529959   1.000000
   32       -4.354826   1.000000
   33       -4.246485   1.000000
   34       -4.222609   1.000000
   35       -4.153828   1.000000
   36       -4.109914   1.000000
   37       -3.973862   1.000000
   38       -3.955271   1.000000
   39       -3.935092   1.000000
   40       -3.733604   1.000000
   41       -3.703686   1.000000
   42       -3.676411   1.000000
   43       -3.638168   1.000000
   44       -3.587069   1.000000
   45       -3.559026   1.000000
   46       -3.457190   1.000000
   47       -3.270722   1.000000
   48       -3.138358   1.000000
   49       -2.917824   1.000000
   50       -2.824290   1.000000
   51       -2.691478   1.000000
   52       -2.573018   1.000000
   53       -2.525744   1.000000
   54       -2.165754   1.000000
   55       -2.006758   1.000000
   56       -1.975369   1.000000
   57       -1.943776   1.000000
   58       -1.917355   1.000000
   59       -1.894075   1.000000
   60       -1.801236   1.000000
   61       -1.768842   1.000000
   62       -1.721496   1.000000
   63       -1.667257   1.000000
   64       -1.623112   1.000001
   65       -1.567685   1.000005
   66       -1.486732   1.000059
   67       -1.324530   1.003033
   68       -1.290648   1.005688
   69       -1.196691   1.021622
   70       -1.133528   1.034338
   71       -1.120392   1.035364
   72       -1.095268   1.033681
   73       -1.006963   0.953701
   74       -0.969264   0.866916
   75       -0.928852   0.735950
   76       -0.853016   0.426681
   77       -0.843232   0.386145
   78       -0.789502   0.186715
   79       -0.744738   0.067652
   80       -0.664279  -0.028025
   81       -0.585272  -0.030795
   82       -0.443909  -0.005090
   83       -0.406663  -0.002504
   84       -0.289786  -0.000159
   85       -0.228420  -0.000028
   86        0.131757  -0.000000
   87        0.237469  -0.000000
   88        0.777461  -0.000000
   89        0.818475  -0.000000
   90        1.084321  -0.000000
   91        1.248420  -0.000000
   92        1.614196  -0.000000
   93        2.080561  -0.000000
   94        2.520677  -0.000000
   95        2.938897  -0.000000
   96        3.312338  -0.000000
 
 -0.6250000E-01  0.1250000E+00  0.0000000E+00  0.2083333E-01
    1      -10.048878   1.000000
    2       -8.740601   1.000000
    3       -7.635169   1.000000
    4       -7.605374   1.000000
    5       -7.548494   1.000000
    6       -7.467671   1.000000
    7       -7.358080   1.000000
    8       -7.331253   1.000000
    9       -7.289304   1.000000
   10       -7.181354   1.000000
   11       -6.875542   1.000000
   12       -6.861229   1.000000
   13       -6.814859   1.000000
   14       -6.620349   1.000000
   15       -6.552399   1.000000
   16       -6.438195   1.000000
   17       -6.431495   1.000000
   18       -6.376896   1.000000
   19       -6.302253   1.000000
   20       -5.703147   1.000000
   21       -5.686863   1.000000
   22       -5.632037   1.000000
   23       -4.996205   1.000000
   24       -4.919059   1.000000
   25       -4.848682   1.000000
   26       -4.838840   1.000000
   27       -4.752274   1.000000
   28       -4.683533   1.000000
   29       -4.666049   1.000000
   30       -4.592630   1.000000
   31       -4.535472   1.000000
   32       -4.356000   1.000000
   33       -4.240095   1.000000
   34       -4.227106   1.000000
   35       -4.146120   1.000000
   36       -4.112649   1.000000
   37       -3.979104   1.000000
   38       -3.953258   1.000000
   39       -3.932648   1.000000
   40       -3.738024   1.000000
   41       -3.691472   1.000000
   42       -3.670999   1.000000
   43       -3.651798   1.000000
   44       -3.588782   1.000000
   45       -3.561074   1.000000
   46       -3.452556   1.000000
   47       -3.271421   1.000000
   48       -3.147080   1.000000
   49       -2.896359   1.000000
   50       -2.831167   1.000000
   51       -2.691402   1.000000
   52       -2.575984   1.000000
   53       -2.526819   1.000000
   54       -2.156226   1.000000
   55       -2.039369   1.000000
   56       -1.980722   1.000000
   57       -1.933549   1.000000
   58       -1.903231   1.000000
   59       -1.860157   1.000000
   60       -1.825066   1.000000
   61       -1.782035   1.000000
   62       -1.730481   1.000000
   63       -1.656835   1.000000
   64       -1.613091   1.000001
   65       -1.564370   1.000005
   66       -1.495538   1.000045
   67       -1.322095   1.003181
   68       -1.294590   1.005306
   69       -1.206762   1.019350
   70       -1.129656   1.034745
   71       -1.112964   1.035435
   72       -1.088778   1.032219
   73       -0.992883   0.925472
   74       -0.982820   0.902241
   75       -0.907959   0.655793
   76       -0.869276   0.495174
   77       -0.839816   0.372185
   78       -0.798864   0.217648
   79       -0.745091   0.068394
   80       -0.657856  -0.030477
   81       -0.617098  -0.035203
   82       -0.446844  -0.005363
   83       -0.394485  -0.001949
   84       -0.283031  -0.000132
   85       -0.225466  -0.000025
   86        0.134272  -0.000000
   87        0.236800  -0.000000
   88        0.779620  -0.000000
   89        0.817241  -0.000000
   90        1.082202  -0.000000
   91        1.249610  -0.000000
   92        1.614792  -0.000000
   93        2.080479  -0.000000
   94        2.519780  -0.000000
   95        2.938489  -0.000000
   96        3.313440  -0.000000
 
  0.3125000E+00  0.6250000E-01  0.0000000E+00  0.2083333E-01
    1       -9.596333   1.000000
    2       -8.305200   1.000000
    3       -7.629650   1.000000
    4       -7.257569   1.000000
    5       -7.204461   1.000000
    6       -7.188747   1.000000
    7       -7.177478   1.000000
    8       -7.015154   1.000000
    9       -7.000245   1.000000
   10       -6.886219   1.000000
   11       -6.693054   1.000000
   12       -6.626778   1.000000
   13       -6.584868   1.000000
   14       -6.534078   1.000000
   15       -6.290940   1.000000
   16       -6.269929   1.000000
   17       -6.105902   1.000000
   18       -6.021135   1.000000
   19       -5.909868   1.000000
   20       -5.563703   1.000000
   21       -5.553780   1.000000
   22       -5.516779   1.000000
   23       -5.156498   1.000000
   24       -5.111179   1.000000
   25       -5.016036   1.000000
   26       -4.951421   1.000000
   27       -4.881867   1.000000
   28       -4.741860   1.000000
   29       -4.601447   1.000000
   30       -4.530283   1.000000
   31       -4.400365   1.000000
   32       -4.276815   1.000000
   33       -4.257245   1.000000
   34       -4.192331   1.000000
   35       -4.157864   1.000000
   36       -4.125300   1.000000
   37       -4.095095   1.000000
   38       -4.033676   1.000000
   39       -4.005037   1.000000
   40       -3.956799   1.000000
   41       -3.888624   1.000000
   42       -3.863616   1.000000
   43       -3.812656   1.000000
   44       -3.744016   1.000000
   45       -3.630356   1.000000
   46       -3.418067   1.000000
   47       -3.394265   1.000000
   48       -3.240643   1.000000
   49       -2.970724   1.000000
   50       -2.936888   1.000000
   51       -2.827408   1.000000
   52       -2.786232   1.000000
   53       -2.752347   1.000000
   54       -2.661713   1.000000
   55       -2.618367   1.000000
   56       -2.602019   1.000000
   57       -2.509360   1.000000
   58       -2.468172   1.000000
   59       -2.432213   1.000000
   60       -2.319129   1.000000
   61       -2.197469   1.000000
   62       -2.068259   1.000000
   63       -2.043356   1.000000
   64       -1.969566   1.000000
   65       -1.884835   1.000000
   66       -1.855698   1.000000
   67       -1.716920   1.000000
   68       -1.667045   1.000000
   69       -1.590080   1.000002
   70       -1.569831   1.000004
   71       -1.482735   1.000066
   72       -1.420398   1.000353
   73       -1.365769   1.001284
   74       -1.270568   1.007975
   75       -1.218720   1.016777
   76       -1.148683   1.032084
   77       -1.070348   1.025092
   78       -0.997409   0.935087
   79       -0.951097   0.812539
   80       -0.912694   0.674537
   81       -0.832349   0.342113
   82       -0.769266   0.126761
   83       -0.660907  -0.029384
   84       -0.605799  -0.034159
   85       -0.532403  -0.018982
   86        0.267862  -0.000000
   87        0.386499  -0.000000
   88        0.489553  -0.000000
   89        0.951251  -0.000000
   90        1.633595  -0.000000
   91        1.876576  -0.000000
   92        1.919292  -0.000000
   93        2.292803  -0.000000
   94        2.622515  -0.000000
   95        3.230318  -0.000000
   96        3.869133  -0.000000
 
  0.2500000E+00  0.3125000E+00  0.0000000E+00  0.2083333E-01
    1       -9.596298   1.000000
    2       -8.305160   1.000000
    3       -7.629972   1.000000
    4       -7.253003   1.000000
    5       -7.206690   1.000000
    6       -7.192526   1.000000
    7       -7.176895   1.000000
    8       -7.011050   1.000000
    9       -7.003155   1.000000
   10       -6.884371   1.000000
   11       -6.690607   1.000000
   12       -6.630253   1.000000
   13       -6.584532   1.000000
   14       -6.534434   1.000000
   15       -6.292171   1.000000
   16       -6.270464   1.000000
   17       -6.105225   1.000000
   18       -6.022898   1.000000
   19       -5.908131   1.000000
   20       -5.576823   1.000000
   21       -5.550114   1.000000
   22       -5.507357   1.000000
   23       -5.158010   1.000000
   24       -5.104714   1.000000
   25       -5.020544   1.000000
   26       -4.963208   1.000000
   27       -4.882831   1.000000
   28       -4.732929   1.000000
   29       -4.590763   1.000000
   30       -4.526019   1.000000
   31       -4.392209   1.000000
   32       -4.295838   1.000000
   33       -4.258157   1.000000
   34       -4.205567   1.000000
   35       -4.155786   1.000000
   36       -4.115869   1.000000
   37       -4.088196   1.000000
   38       -4.025181   1.000000
   39       -3.993887   1.000000
   40       -3.979179   1.000000
   41       -3.884868   1.000000
   42       -3.855249   1.000000
   43       -3.814837   1.000000
   44       -3.767087   1.000000
   45       -3.603888   1.000000
   46       -3.426825   1.000000
   47       -3.392071   1.000000
   48       -3.240889   1.000000
   49       -2.992248   1.000000
   50       -2.930957   1.000000
   51       -2.858908   1.000000
   52       -2.786254   1.000000
   53       -2.722135   1.000000
   54       -2.652440   1.000000
   55       -2.617438   1.000000
   56       -2.599691   1.000000
   57       -2.516589   1.000000
   58       -2.482262   1.000000
   59       -2.411003   1.000000
   60       -2.336265   1.000000
   61       -2.210600   1.000000
   62       -2.079342   1.000000
   63       -1.988424   1.000000
   64       -1.966548   1.000000
   65       -1.901358   1.000000
   66       -1.859829   1.000000
   67       -1.730143   1.000000
   68       -1.664519   1.000000
   69       -1.611185   1.000001
   70       -1.572481   1.000004
   71       -1.479733   1.000072
   72       -1.369411   1.001184
   73       -1.357651   1.001533
   74       -1.286192   1.006145
   75       -1.203257   1.020132
   76       -1.145381   1.032652
   77       -1.110731   1.035373
   78       -1.006891   0.953568
   79       -0.947871   0.802080
   80       -0.885410   0.563246
   81       -0.796069   0.208213
   82       -0.772312   0.135153
   83       -0.732083   0.043070
   84       -0.617495  -0.035226
   85       -0.484667  -0.009995
   86        0.268179  -0.000000
   87        0.378102  -0.000000
   88        0.482320  -0.000000
   89        0.954836  -0.000000
   90        1.635365  -0.000000
   91        1.873561  -0.000000
   92        1.917045  -0.000000
   93        2.297876  -0.000000
   94        2.623381  -0.000000
   95        3.232134  -0.000000
   96        3.869683  -0.000000
 
 -0.6250000E-01  0.2500000E+00  0.0000000E+00  0.2083333E-01
    1       -9.596305   1.000000
    2       -8.305171   1.000000
    3       -7.630030   1.000000
    4       -7.253099   1.000000
    5       -7.206911   1.000000
    6       -7.191600   1.000000
    7       -7.177130   1.000000
    8       -7.012029   1.000000
    9       -7.002793   1.000000
   10       -6.884586   1.000000
   11       -6.689825   1.000000
   12       -6.632648   1.000000
   13       -6.582588   1.000000
   14       -6.534165   1.000000
   15       -6.293241   1.000000
   16       -6.269164   1.000000
   17       -6.105509   1.000000
   18       -6.023041   1.000000
   19       -5.908548   1.000000
   20       -5.577485   1.000000
   21       -5.546912   1.000000
   22       -5.509206   1.000000
   23       -5.154892   1.000000
   24       -5.104204   1.000000
   25       -5.022762   1.000000
   26       -4.963481   1.000000
   27       -4.878758   1.000000
   28       -4.735121   1.000000
   29       -4.594064   1.000000
   30       -4.527859   1.000000
   31       -4.397131   1.000000
   32       -4.303034   1.000000
   33       -4.245375   1.000000
   34       -4.205724   1.000000
   35       -4.164356   1.000000
   36       -4.117386   1.000000
   37       -4.079780   1.000000
   38       -4.030739   1.000000
   39       -3.989836   1.000000
   40       -3.971907   1.000000
   41       -3.883346   1.000000
   42       -3.871512   1.000000
   43       -3.804067   1.000000
   44       -3.761920   1.000000
   45       -3.603098   1.000000
   46       -3.429597   1.000000
   47       -3.395850   1.000000
   48       -3.246043   1.000000
   49       -2.990602   1.000000
   50       -2.922493   1.000000
   51       -2.859636   1.000000
   52       -2.771753   1.000000
   53       -2.741259   1.000000
   54       -2.660395   1.000000
   55       -2.615728   1.000000
   56       -2.592813   1.000000
   57       -2.519434   1.000000
   58       -2.472690   1.000000
   59       -2.414305   1.000000
   60       -2.324339   1.000000
   61       -2.203308   1.000000
   62       -2.085309   1.000000
   63       -2.005225   1.000000
   64       -1.962956   1.000000
   65       -1.910190   1.000000
   66       -1.844343   1.000000
   67       -1.734244   1.000000
   68       -1.669818   1.000000
   69       -1.623431   1.000001
   70       -1.550614   1.000008
   71       -1.485357   1.000061
   72       -1.388936   1.000758
   73       -1.344582   1.002022
   74       -1.291415   1.005612
   75       -1.195573   1.021878
   76       -1.150948   1.031674
   77       -1.110667   1.035370
   78       -1.012206   0.962958
   79       -0.949628   0.807805
   80       -0.878752   0.535240
   81       -0.791580   0.193413
   82       -0.764344   0.113684
   83       -0.739865   0.057716
   84       -0.613571  -0.034956
   85       -0.487210  -0.010386
   86        0.267119  -0.000000
   87        0.379481  -0.000000
   88        0.483801  -0.000000
   89        0.954979  -0.000000
   90        1.635330  -0.000000
   91        1.880713  -0.000000
   92        1.909453  -0.000000
   93        2.297520  -0.000000
   94        2.623972  -0.000000
   95        3.231746  -0.000000
   96        3.868652  -0.000000
 
  0.4375000E+00  0.6250000E-01  0.0000000E+00  0.2083333E-01
    1       -8.959669   1.000000
    2       -7.982678   1.000000
    3       -7.742985   1.000000
    4       -7.203228   1.000000
    5       -6.906201   1.000000
    6       -6.813737   1.000000
    7       -6.718874   1.000000
    8       -6.660295   1.000000
    9       -6.611500   1.000000
   10       -6.593749   1.000000
   11       -6.546905   1.000000
   12       -6.324172   1.000000
   13       -6.281560   1.000000
   14       -6.168458   1.000000
   15       -6.086874   1.000000
   16       -6.064798   1.000000
   17       -5.881054   1.000000
   18       -5.608321   1.000000
   19       -5.576761   1.000000
   20       -5.493540   1.000000
   21       -5.398669   1.000000
   22       -5.344544   1.000000
   23       -5.297444   1.000000
   24       -5.223754   1.000000
   25       -5.172223   1.000000
   26       -5.059698   1.000000
   27       -5.032000   1.000000
   28       -4.796188   1.000000
   29       -4.716598   1.000000
   30       -4.680834   1.000000
   31       -4.667517   1.000000
   32       -4.539081   1.000000
   33       -4.443558   1.000000
   34       -4.396348   1.000000
   35       -4.328956   1.000000
   36       -4.191941   1.000000
   37       -4.114219   1.000000
   38       -4.065390   1.000000
   39       -3.964081   1.000000
   40       -3.905901   1.000000
   41       -3.819694   1.000000
   42       -3.766079   1.000000
   43       -3.742984   1.000000
   44       -3.722290   1.000000
   45       -3.641957   1.000000
   46       -3.612411   1.000000
   47       -3.501201   1.000000
   48       -3.447659   1.000000
   49       -3.403491   1.000000
   50       -3.364368   1.000000
   51       -3.312299   1.000000
   52       -3.231610   1.000000
   53       -3.186923   1.000000
   54       -3.102342   1.000000
   55       -2.971694   1.000000
   56       -2.954970   1.000000
   57       -2.859468   1.000000
   58       -2.800815   1.000000
   59       -2.727265   1.000000
   60       -2.531237   1.000000
   61       -2.461324   1.000000
   62       -2.397878   1.000000
   63       -2.354304   1.000000
   64       -2.302695   1.000000
   65       -2.238238   1.000000
   66       -2.160184   1.000000
   67       -2.117874   1.000000
   68       -1.996227   1.000000
   69       -1.955728   1.000000
   70       -1.922527   1.000000
   71       -1.861058   1.000000
   72       -1.814761   1.000000
   73       -1.569895   1.000004
   74       -1.469910   1.000095
   75       -1.355493   1.001606
   76       -1.311560   1.003891
   77       -1.207971   1.019083
   78       -1.142724   1.033081
   79       -1.016072   0.969360
   80       -0.965627   0.856663
   81       -0.904226   0.640819
   82       -0.804565   0.237398
   83       -0.720533   0.024049
   84       -0.621605  -0.035402
   85       -0.546690  -0.022206
   86       -0.249960  -0.000052
   87        0.620211  -0.000000
   88        1.017412  -0.000000
   89        1.102950  -0.000000
   90        1.712341  -0.000000
   91        1.929993  -0.000000
   92        2.098388  -0.000000
   93        2.471395  -0.000000
   94        3.003001  -0.000000
   95        3.573580  -0.000000
   96        3.962239  -0.000000
 
  0.3750000E+00  0.4375000E+00  0.0000000E+00  0.2083333E-01
    1       -8.959417   1.000000
    2       -7.983893   1.000000
    3       -7.742183   1.000000
    4       -7.202523   1.000000
    5       -6.905642   1.000000
    6       -6.812624   1.000000
    7       -6.714487   1.000000
    8       -6.655743   1.000000
    9       -6.616533   1.000000
   10       -6.599291   1.000000
   11       -6.545501   1.000000
   12       -6.325290   1.000000
   13       -6.285618   1.000000
   14       -6.163700   1.000000
   15       -6.087440   1.000000
   16       -6.068556   1.000000
   17       -5.880624   1.000000
   18       -5.626309   1.000000
   19       -5.569900   1.000000
   20       -5.488367   1.000000