  16  16   0   0
  0.5150799E+02  0.5557859E-09  0.5557859E-09  0.3080696E-08  0.5000000E-15
  1.000000000000000E-004
  CAR 
 unknown system                          
      6.49920091    -12.19330284  301     -0.81563333      1.00000000
    -12.193  0.0000E+00  0.0000E+00
    -12.131  0.0000E+00  0.0000E+00
    -12.069  0.0000E+00  0.0000E+00
    -12.006  0.0000E+00  0.0000E+00
    -11.944  0.0000E+00  0.0000E+00
    -11.882  0.0000E+00  0.0000E+00
    -11.819 -0.4477E-28 -0.2790E-29
    -11.757 -0.6178E-26 -0.3877E-27
    -11.695 -0.7025E-24 -0.4416E-25
    -11.633 -0.6568E-22 -0.4137E-23
    -11.570 -0.5047E-20 -0.3186E-21
    -11.508 -0.3187E-18 -0.2018E-19
    -11.446 -0.1653E-16 -0.1050E-17
    -11.383 -0.7045E-15 -0.4495E-16
    -11.321 -0.2387E-13 -0.1532E-14
    -11.259 -0.6834E-12 -0.4412E-13
    -11.196 -0.1603E-10 -0.1043E-11
    -11.134 -0.3081E-09 -0.2024E-10
    -11.072 -0.4847E-08 -0.3223E-09
    -11.009 -0.6235E-07 -0.4207E-08
    -10.947 -0.6546E-06 -0.4499E-07
    -10.885 -0.5598E-05 -0.3938E-06
    -10.823 -0.3888E-04 -0.2816E-05
    -10.760 -0.2184E-03 -0.1642E-04
    -10.698 -0.9849E-03 -0.7779E-04
    -10.636 -0.3530E-02 -0.2977E-03
    -10.573 -0.9852E-02 -0.9116E-03
    -10.511 -0.2054E-01 -0.2191E-02
    -10.449 -0.2838E-01 -0.3959E-02
    -10.386 -0.1180E-01 -0.4694E-02
    -10.324  0.5954E-01 -0.9847E-03
    -10.262  0.2009E+00  0.1153E-01
    -10.199  0.3920E+00  0.3595E-01
    -10.137  0.5894E+00  0.7268E-01
    -10.075  0.7581E+00  0.1199E+00
    -10.013  0.8791E+00  0.1747E+00
     -9.950  0.9345E+00  0.2329E+00
     -9.888  0.9123E+00  0.2898E+00
     -9.826  0.8323E+00  0.3416E+00
     -9.763  0.7565E+00  0.3888E+00
     -9.701  0.7606E+00  0.4362E+00
     -9.639  0.8717E+00  0.4905E+00
     -9.576  0.1022E+01  0.5542E+00
     -9.514  0.1095E+01  0.6224E+00
     -9.452  0.1041E+01  0.6872E+00
     -9.389  0.9160E+00  0.7443E+00
     -9.327  0.8054E+00  0.7945E+00
     -9.265  0.7426E+00  0.8407E+00
     -9.203  0.7370E+00  0.8867E+00
     -9.140  0.8265E+00  0.9382E+00
     -9.078  0.1045E+01  0.1003E+01
     -9.016  0.1344E+01  0.1087E+01
     -8.953  0.1603E+01  0.1187E+01
     -8.891  0.1746E+01  0.1296E+01
     -8.829  0.1806E+01  0.1408E+01
     -8.766  0.1844E+01  0.1523E+01
     -8.704  0.1854E+01  0.1639E+01
     -8.642  0.1799E+01  0.1751E+01
     -8.579  0.1718E+01  0.1858E+01
     -8.517  0.1744E+01  0.1967E+01
     -8.455  0.1978E+01  0.2090E+01
     -8.392  0.2364E+01  0.2237E+01
     -8.330  0.2685E+01  0.2404E+01
     -8.268  0.2739E+01  0.2575E+01
     -8.206  0.2534E+01  0.2733E+01
     -8.143  0.2264E+01  0.2874E+01
     -8.081  0.2094E+01  0.3005E+01
     -8.019  0.2052E+01  0.3132E+01
     -7.956  0.2159E+01  0.3267E+01
     -7.894  0.2561E+01  0.3427E+01
     -7.832  0.3377E+01  0.3637E+01
     -7.769  0.4447E+01  0.3914E+01
     -7.707  0.5377E+01  0.4249E+01
     -7.645  0.5947E+01  0.4620E+01
     -7.582  0.6376E+01  0.5017E+01
     -7.520  0.7061E+01  0.5457E+01
     -7.458  0.8168E+01  0.5966E+01
     -7.396  0.9598E+01  0.6564E+01
     -7.333  0.1119E+02  0.7261E+01
     -7.271  0.1273E+02  0.8054E+01
     -7.209  0.1382E+02  0.8915E+01
     -7.146  0.1408E+02  0.9793E+01
     -7.084  0.1351E+02  0.1063E+02
     -7.022  0.1257E+02  0.1142E+02
     -6.959  0.1201E+02  0.1217E+02
     -6.897  0.1254E+02  0.1295E+02
     -6.835  0.1439E+02  0.1384E+02
     -6.772  0.1717E+02  0.1491E+02
     -6.710  0.2013E+02  0.1617E+02
     -6.648  0.2259E+02  0.1758E+02
     -6.586  0.2422E+02  0.1909E+02
     -6.523  0.2489E+02  0.2064E+02
     -6.461  0.2459E+02  0.2217E+02
     -6.399  0.2360E+02  0.2364E+02
     -6.336  0.2261E+02  0.2505E+02
     -6.274  0.2209E+02  0.2642E+02
     -6.212  0.2184E+02  0.2779E+02
     -6.149  0.2118E+02  0.2911E+02
     -6.087  0.1965E+02  0.3033E+02
     -6.025  0.1747E+02  0.3142E+02
     -5.962  0.1538E+02  0.3238E+02
     -5.900  0.1414E+02  0.3326E+02
     -5.838  0.1410E+02  0.3414E+02
     -5.776  0.1522E+02  0.3508E+02
     -5.713  0.1713E+02  0.3615E+02
     -5.651  0.1918E+02  0.3735E+02
     -5.589  0.2062E+02  0.3863E+02
     -5.526  0.2099E+02  0.3994E+02
     -5.464  0.2042E+02  0.4121E+02
     -5.402  0.1952E+02  0.4243E+02
     -5.339  0.1901E+02  0.4361E+02
     -5.277  0.1915E+02  0.4480E+02
     -5.215  0.1972E+02  0.4603E+02
     -5.152  0.2027E+02  0.4730E+02
     -5.090  0.2057E+02  0.4858E+02
     -5.028  0.2068E+02  0.4987E+02
     -4.966  0.2074E+02  0.5116E+02
     -4.903  0.2092E+02  0.5246E+02
     -4.841  0.2138E+02  0.5379E+02
     -4.779  0.2222E+02  0.5518E+02
     -4.716  0.2354E+02  0.5664E+02
     -4.654  0.2533E+02  0.5822E+02
     -4.592  0.2720E+02  0.5992E+02
     -4.529  0.2838E+02  0.6169E+02
     -4.467  0.2828E+02  0.6345E+02
     -4.405  0.2721E+02  0.6514E+02
     -4.342  0.2633E+02  0.6678E+02
     -4.280  0.2673E+02  0.6845E+02
     -4.218  0.2846E+02  0.7022E+02
     -4.156  0.3057E+02  0.7213E+02
     -4.093  0.3208E+02  0.7413E+02
     -4.031  0.3274E+02  0.7617E+02
     -3.969  0.3297E+02  0.7822E+02
     -3.906  0.3328E+02  0.8030E+02
     -3.844  0.3381E+02  0.8240E+02
     -3.782  0.3436E+02  0.8454E+02
     -3.719  0.3456E+02  0.8670E+02
     -3.657  0.3399E+02  0.8881E+02
     -3.595  0.3233E+02  0.9083E+02
     -3.532  0.2957E+02  0.9267E+02
     -3.470  0.2617E+02  0.9430E+02
     -3.408  0.2282E+02  0.9572E+02
     -3.346  0.2007E+02  0.9697E+02
     -3.283  0.1816E+02  0.9811E+02
     -3.221  0.1716E+02  0.9917E+02
     -3.159  0.1728E+02  0.1003E+03
     -3.096  0.1875E+02  0.1014E+03
     -3.034  0.2146E+02  0.1028E+03
     -2.972  0.2472E+02  0.1043E+03
     -2.909  0.2738E+02  0.1060E+03
     -2.847  0.2849E+02  0.1078E+03
     -2.785  0.2782E+02  0.1095E+03
     -2.722  0.2593E+02  0.1111E+03
     -2.660  0.2381E+02  0.1126E+03
     -2.598  0.2230E+02  0.1140E+03
     -2.536  0.2175E+02  0.1154E+03
     -2.473  0.2197E+02  0.1167E+03
     -2.411  0.2258E+02  0.1181E+03
     -2.349  0.2317E+02  0.1196E+03
     -2.286  0.2349E+02  0.1210E+03
     -2.224  0.2361E+02  0.1225E+03
     -2.162  0.2384E+02  0.1240E+03
     -2.099  0.2449E+02  0.1255E+03
     -2.037  0.2562E+02  0.1271E+03
     -1.975  0.2696E+02  0.1288E+03
     -1.912  0.2796E+02  0.1305E+03
     -1.850  0.2803E+02  0.1323E+03
     -1.788  0.2704E+02  0.1340E+03
     -1.726  0.2554E+02  0.1356E+03
     -1.663  0.2426E+02  0.1371E+03
     -1.601  0.2341E+02  0.1385E+03
     -1.539  0.2273E+02  0.1399E+03
     -1.476  0.2215E+02  0.1413E+03
     -1.414  0.2204E+02  0.1427E+03
     -1.352  0.2274E+02  0.1441E+03
     -1.289  0.2413E+02  0.1456E+03
     -1.227  0.2578E+02  0.1472E+03
     -1.165  0.2743E+02  0.1489E+03
     -1.102  0.2916E+02  0.1508E+03
     -1.040  0.3089E+02  0.1527E+03
     -0.978  0.3227E+02  0.1547E+03
     -0.915  0.3299E+02  0.1567E+03
     -0.853  0.3289E+02  0.1588E+03
     -0.791  0.3177E+02  0.1608E+03
     -0.729  0.2943E+02  0.1626E+03
     -0.666  0.2614E+02  0.1642E+03
     -0.604  0.2264E+02  0.1656E+03
     -0.542  0.1955E+02  0.1669E+03
     -0.479  0.1684E+02  0.1679E+03
     -0.417  0.1422E+02  0.1688E+03
     -0.355  0.1164E+02  0.1695E+03
     -0.292  0.9377E+01  0.1701E+03
     -0.230  0.7681E+01  0.1706E+03
     -0.168  0.6633E+01  0.1710E+03
     -0.105  0.6212E+01  0.1714E+03
     -0.043  0.6242E+01  0.1718E+03
      0.019  0.6309E+01  0.1722E+03
      0.081  0.6000E+01  0.1725E+03
      0.144  0.5332E+01  0.1729E+03
      0.206  0.4771E+01  0.1732E+03
      0.268  0.4680E+01  0.1735E+03
      0.331  0.4883E+01  0.1738E+03
      0.393  0.4872E+01  0.1741E+03
      0.455  0.4401E+01  0.1743E+03
      0.518  0.3771E+01  0.1746E+03
      0.580  0.3542E+01  0.1748E+03
      0.642  0.4027E+01  0.1751E+03
      0.705  0.5064E+01  0.1754E+03
      0.767  0.6187E+01  0.1758E+03
      0.829  0.6928E+01  0.1762E+03
      0.891  0.7034E+01  0.1766E+03
      0.954  0.6551E+01  0.1770E+03
      1.016  0.5759E+01  0.1774E+03
      1.078  0.4969E+01  0.1777E+03
      1.141  0.4348E+01  0.1780E+03
      1.203  0.3931E+01  0.1782E+03
      1.265  0.3726E+01  0.1784E+03
      1.328  0.3760E+01  0.1787E+03
      1.390  0.4028E+01  0.1789E+03
      1.452  0.4434E+01  0.1792E+03
      1.515  0.4834E+01  0.1795E+03
      1.577  0.5170E+01  0.1798E+03
      1.639  0.5514E+01  0.1802E+03
      1.701  0.5901E+01  0.1805E+03
      1.764  0.6122E+01  0.1809E+03
      1.826  0.5864E+01  0.1813E+03
      1.888  0.5117E+01  0.1816E+03
      1.951  0.4345E+01  0.1819E+03
      2.013  0.4126E+01  0.1821E+03
      2.075  0.4622E+01  0.1824E+03
      2.138  0.5424E+01  0.1828E+03
      2.200  0.5928E+01  0.1831E+03
      2.262  0.5872E+01  0.1835E+03
      2.325  0.5499E+01  0.1838E+03
      2.387  0.5201E+01  0.1842E+03
      2.449  0.5038E+01  0.1845E+03
      2.511  0.4703E+01  0.1848E+03
      2.574  0.3974E+01  0.1850E+03
      2.636  0.3115E+01  0.1852E+03
      2.698  0.2754E+01  0.1854E+03
      2.761  0.3350E+01  0.1856E+03
      2.823  0.4753E+01  0.1859E+03
      2.885  0.6213E+01  0.1863E+03
      2.948  0.6873E+01  0.1867E+03
      3.010  0.6380E+01  0.1871E+03
      3.072  0.5112E+01  0.1874E+03
      3.135  0.3825E+01  0.1877E+03
      3.197  0.3095E+01  0.1879E+03
      3.259  0.3044E+01  0.1880E+03
      3.321  0.3421E+01  0.1883E+03
      3.384  0.3860E+01  0.1885E+03
      3.446  0.4111E+01  0.1888E+03
      3.508  0.4113E+01  0.1890E+03
      3.571  0.3890E+01  0.1893E+03
      3.633  0.3485E+01  0.1895E+03
      3.695  0.3084E+01  0.1897E+03
      3.758  0.3041E+01  0.1899E+03
      3.820  0.3544E+01  0.1901E+03
      3.882  0.4303E+01  0.1903E+03
      3.945  0.4716E+01  0.1906E+03
      4.007  0.4384E+01  0.1909E+03
      4.069  0.3435E+01  0.1911E+03
      4.131  0.2385E+01  0.1913E+03
      4.194  0.1717E+01  0.1914E+03
      4.256  0.1570E+01  0.1915E+03
      4.318  0.1755E+01  0.1916E+03
      4.381  0.1957E+01  0.1917E+03
      4.443  0.1918E+01  0.1918E+03
      4.505  0.1549E+01  0.1919E+03
      4.568  0.9701E+00  0.1920E+03
      4.630  0.4184E+00  0.1920E+03
      4.692  0.6633E-01  0.1920E+03
      4.755 -0.6954E-01  0.1920E+03
      4.817 -0.7660E-01  0.1920E+03
      4.879 -0.4493E-01  0.1920E+03
      4.941 -0.1884E-01  0.1920E+03
      5.004 -0.6080E-02  0.1920E+03
      5.066 -0.1555E-02  0.1920E+03
      5.128 -0.3200E-03  0.1920E+03
      5.191 -0.5338E-04  0.1920E+03
      5.253 -0.7257E-05  0.1920E+03
      5.315 -0.8064E-06  0.1920E+03
      5.378 -0.7340E-07  0.1920E+03
      5.440 -0.5479E-08  0.1920E+03
      5.502 -0.3358E-09  0.1920E+03
      5.565 -0.1691E-10  0.1920E+03
      5.627 -0.6996E-12  0.1920E+03
      5.689 -0.2398E-13  0.1920E+03
      5.752 -0.5939E-15  0.1920E+03
      5.814  0.0000E+00  0.1920E+03
      5.876  0.0000E+00  0.1920E+03
      5.938  0.0000E+00  0.1920E+03
      6.001  0.0000E+00  0.1920E+03
      6.063  0.0000E+00  0.1920E+03
      6.125  0.0000E+00  0.1920E+03
      6.188  0.0000E+00  0.1920E+03
      6.250  0.0000E+00  0.1920E+03
      6.312  0.0000E+00  0.1920E+03
      6.375  0.0000E+00  0.1920E+03
      6.437  0.0000E+00  0.1920E+03
      6.499  0.0000E+00  0.1920E+03
