 vasp.5.4.4.18Apr17-6-g9f103f2a35 (build Apr 28 2017 10:53:45) complex          
  
 executed on             LinuxIFC date 2020.02.16  21:02:18
 running on   24 total cores
 distrk:  each k-point on   24 cores,    1 groups
 distr:  one band on NCORES_PER_BAND=   1 cores,   24 groups


--------------------------------------------------------------------------------------------------------


 INCAR:
 POTCAR:    PAW_PBE Ir 06Sep2000                  
 POTCAR:    PAW_PBE Pt 04Feb2005                  
 POTCAR:    PAW_PBE Au 04Oct2007                  

 ----------------------------------------------------------------------------- 
|                                                                             |
|           W    W    AA    RRRRR   N    N  II  N    N   GGGG   !!!           |
|           W    W   A  A   R    R  NN   N  II  NN   N  G    G  !!!           |
|           W    W  A    A  R    R  N N  N  II  N N  N  G       !!!           |
|           W WW W  AAAAAA  RRRRR   N  N N  II  N  N N  G  GGG   !            |
|           WW  WW  A    A  R   R   N   NN  II  N   NN  G    G                |
|           W    W  A    A  R    R  N    N  II  N    N   GGGG   !!!           |
|                                                                             |
|      For optimal performance we recommend to set                            |
|        NCORE= 4 - approx SQRT( number of cores)                             |
|      NCORE specifies how many cores store one orbital (NPAR=cpu/NCORE).     |
|      This setting can  greatly improve the performance of VASP for DFT.     |
|      The default,   NCORE=1            might be grossly inefficient         |
|      on modern multi-core architectures or massively parallel machines.     |
|      Do your own testing !!!!                                               |
|      Unfortunately you need to use the default for GW and RPA calculations. |
|      (for HF NCORE is supported but not extensively tested yet)             |
|                                                                             |
 ----------------------------------------------------------------------------- 

 POTCAR:    PAW_PBE Ir 06Sep2000                  
   SHA256 =  7c6af8d4d487b237782eb51e6f62977b27a1da78c3c96acd1cebefd6c308f120 Ir
   COPYR  = (c) Copyright 06Sep2000 Georg Kresse                                
   COPYR  = This file is part of the software VASP. Any use, copying, and all ot
   COPYR  = If you do not have a valid VASP license, you may not use, copy or di
   VRHFIN =Ir: s1d8                                                             
   LEXCH  = PE                                                                  
   EATOM  =   560.1833 eV,   41.1723 Ry                                         
                                                                                
   TITEL  = PAW_PBE Ir 06Sep2000                                                
   LULTRA =        F    use ultrasoft PP ?                                      
   IUNSCR =        1    unscreen: 0-lin 1-nonlin 2-no                           
   RPACOR =    2.250    partial core radius                                     
   POMASS =  192.220; ZVAL   =    9.000    mass and valenz                      
   RCORE  =    2.600    outmost cutoff radius                                   
   RWIGS  =    2.690; RWIGS  =    1.423    wigner-seitz radius (au A)           
   ENMAX  =  210.864; ENMIN  =  158.148 eV                                      
   RCLOC  =    1.857    cutoff for local pot                                    
   LCOR   =        T    correct aug charges                                     
   LPAW   =        T    paw PP                                                  
   EAUG   =  318.962                                                            
   DEXC   =    0.000                                                            
   RMAX   =    2.667    core radius for proj-oper                               
   RAUG   =    1.300    factor for augmentation sphere                          
   RDEP   =    2.748    radius for radial grids                                 
   RDEPT  =    2.300    core radius for aug-charge                              
                                                                                
   Atomic configuration                                                         
   16 entries                                                                   
     n  l   j            E        occ.                                          
     1  0  0.50    -76100.0449   2.0000                                         
     2  0  0.50    -13308.1683   2.0000                                         
     2  1  1.50    -11558.0021   6.0000                                         
     3  0  0.50     -3110.7274   2.0000                                         
     3  1  1.50     -2599.2109   6.0000                                         
     3  2  2.50     -2037.1515  10.0000                                         
     4  0  0.50      -661.6001   2.0000                                         
     4  1  1.50      -493.8981   6.0000                                         
     4  2  2.50      -288.1909  10.0000                                         
     4  3  3.50       -59.5718  14.0000                                         
     5  0  0.50       -95.3879   2.0000                                         
     5  1  1.50       -52.2747   6.0000                                         
     5  2  2.50        -5.4180   8.0000                                         
     6  0  0.50        -5.5479   1.0000                                         
     6  1  1.50        -6.8029   0.0000                                         
     5  3  2.50        -1.3606   0.0000                                         
   Description                                                                  
     l       E           TYP  RCUT    TYP  RCUT                                 
     2     -5.4179967     23  2.600                                             
     2     -6.7785793     23  2.600                                             
     0     -5.5478636     23  2.600                                             
     0      2.2542272     23  2.600                                             
     1     -2.7211652     23  2.600                                             
     1     20.4087390     23  2.600                                             
  local pseudopotential read in
  partial core-charges read in
  partial kinetic energy density read in
  atomic valenz-charges read in
  non local Contribution for L=           2  read in
    real space projection operators read in
  non local Contribution for L=           2  read in
    real space projection operators read in
  non local Contribution for L=           0  read in
    real space projection operators read in
  non local Contribution for L=           0  read in
    real space projection operators read in
  non local Contribution for L=           1  read in
    real space projection operators read in
  non local Contribution for L=           1  read in
    real space projection operators read in
    PAW grid and wavefunctions read in
 
   number of l-projection  operators is LMAX  =           6
   number of lm-projection operators is LMMAX =          18
 
 POTCAR:    PAW_PBE Pt 04Feb2005                  
   SHA256 =  3ed90460adef76debcff1cfb73ee1349b515b1a3db03439735b44de3a8db7dc8 Pt
   COPYR  = (c) Copyright 04Feb2005 Georg Kresse                                
   COPYR  = This file is part of the software VASP. Any use, copying, and all ot
   COPYR  = If you do not have a valid VASP license, you may not use, copy or di
   VRHFIN =Pt: s1d9                                                             
   LEXCH  = PE                                                                  
   EATOM  =   729.1176 eV,   53.5886 Ry                                         
                                                                                
   TITEL  = PAW_PBE Pt 04Feb2005                                                
   LULTRA =        F    use ultrasoft PP ?                                      
   IUNSCR =        1    unscreen: 0-lin 1-nonlin 2-no                           
   RPACOR =    2.330    partial core radius                                     
   POMASS =  195.080; ZVAL   =   10.000    mass and valenz                      
   RCORE  =    2.600    outmost cutoff radius                                   
   RWIGS  =    2.750; RWIGS  =    1.455    wigner-seitz radius (au A)           
   ENMAX  =  230.283; ENMIN  =  172.712 eV                                      
   ICORE  =        3    local potential                                         
   LCOR   =        T    correct aug charges                                     
   LPAW   =        T    paw PP                                                  
   EAUG   =  358.966                                                            
   DEXC   =    0.000                                                            
   RMAX   =    2.658    core radius for proj-oper                               
   RAUG   =    1.300    factor for augmentation sphere                          
   RDEP   =    2.761    radius for radial grids                                 
   RDEPT  =    2.203    core radius for aug-charge                              
                                                                                
   Atomic configuration                                                         
   16 entries                                                                   
     n  l   j            E        occ.                                          
     1  0  0.50    -78401.1885   2.0000                                         
     2  0  0.50    -13770.7750   2.0000                                         
     2  1  1.50    -11931.0468   6.0000                                         
     3  0  0.50     -3234.7234   2.0000                                         
     3  1  1.50     -2699.2216   6.0000                                         
     3  2  2.50     -2119.5714  10.0000                                         
     4  0  0.50      -695.1528   2.0000                                         
     4  1  1.50      -519.6034   6.0000                                         
     4  2  2.50      -306.6786  10.0000                                         
     4  3  3.50       -70.1041  14.0000                                         
     5  0  0.50      -101.7747   2.0000                                         
     5  1  1.50       -55.9873   6.0000                                         
     5  2  2.50        -6.1423   9.0000                                         
     6  0  0.50        -5.6573   1.0000                                         
     6  1  1.50        -6.8029   0.0000                                         
     5  3  2.50        -1.3606   0.0000                                         
   Description                                                                  
     l       E           TYP  RCUT    TYP  RCUT                                 
     2     -6.1423404     23  2.500                                             
     2     -7.5029230     23  2.500                                             
     0     -5.6573207     23  2.500                                             
     0      0.7416693     23  2.500                                             
     1     -2.7211652     23  2.600                                             
     1     20.4087390     23  2.600                                             
     3     -1.3605826     23  2.500                                             
  local pseudopotential read in
  partial core-charges read in
  partial kinetic energy density read in
  atomic valenz-charges read in
  non local Contribution for L=           2  read in
    real space projection operators read in
  non local Contribution for L=           2  read in
    real space projection operators read in
  non local Contribution for L=           0  read in
    real space projection operators read in
  non local Contribution for L=           0  read in
    real space projection operators read in
  non local Contribution for L=           1  read in
    real space projection operators read in
  non local Contribution for L=           1  read in
    real space projection operators read in
    PAW grid and wavefunctions read in
 
   number of l-projection  operators is LMAX  =           6
   number of lm-projection operators is LMMAX =          18
 
 POTCAR:    PAW_PBE Au 04Oct2007                  
   SHA256 =  d0044ae04e2bdce24051b198fc5c053d722a5bc6fe3c3b100514a13fc5d2db88 Au
   COPYR  = (c) Copyright 04Oct2007 Georg Kresse                                
   COPYR  = This file is part of the software VASP. Any use, copying, and all ot
   COPYR  = If you do not have a valid VASP license, you may not use, copy or di
   VRHFIN =Au: s1d10                                                            
   LEXCH  = PE                                                                  
   EATOM  =   926.0867 eV,   68.0654 Ry                                         
                                                                                
   TITEL  = PAW_PBE Au 04Oct2007                                                
   LULTRA =        F    use ultrasoft PP ?                                      
   IUNSCR =        1    unscreen: 0-lin 1-nonlin 2-no                           
   RPACOR =    2.330    partial core radius                                     
   POMASS =  196.966; ZVAL   =   11.000    mass and valenz                      
   RCORE  =    2.500    outmost cutoff radius                                   
   RWIGS  =    2.840; RWIGS  =    1.503    wigner-seitz radius (au A)           
   ENMAX  =  229.943; ENMIN  =  172.457 eV                                      
   ICORE  =        3    local potential                                         
   LCOR   =        T    correct aug charges                                     
   LPAW   =        T    paw PP                                                  
   EAUG   =  356.670                                                            
   DEXC   =    0.000                                                            
   RMAX   =    2.562    core radius for proj-oper                               
   RAUG   =    1.300    factor for augmentation sphere                          
   RDEP   =    2.598    radius for radial grids                                 
   RDEPT  =    2.193    core radius for aug-charge                              
                                                                                
   Atomic configuration                                                         
   16 entries                                                                   
     n  l   j            E        occ.                                          
     1  0  0.50    -80748.5001   2.0000                                         
     2  0  0.50    -14244.7466   2.0000                                         
     2  1  1.50    -12310.9591   6.0000                                         
     3  0  0.50     -3362.1768   2.0000                                         
     3  1  1.50     -2801.5463   6.0000                                         
     3  2  2.50     -2203.8206  10.0000                                         
     4  0  0.50      -729.8168   2.0000                                         
     4  1  1.50      -546.0527   6.0000                                         
     4  2  2.50      -325.7302  10.0000                                         
     4  3  3.50       -81.1472  14.0000                                         
     5  0  0.50      -108.3201   2.0000                                         
     5  1  1.50       -59.7479   6.0000                                         
     5  2  2.50        -6.8783  10.0000                                         
     6  0  0.50        -5.7602   1.0000                                         
     6  1  1.50        -6.8029   0.0000                                         
     5  3  2.50        -1.3606   0.0000                                         
   Description                                                                  
     l       E           TYP  RCUT    TYP  RCUT                                 
     2     -6.8782861     23  2.500                                             
     2     -8.2388687     23  2.500                                             
     0     -5.7601759     23  2.500                                             
     0     -0.8493231     23  2.500                                             
     1     -2.7211652     23  2.500                                             
     1     27.2116520     23  2.500                                             
     3     -1.3605826     23  2.500                                             
  local pseudopotential read in
  partial core-charges read in
  partial kinetic energy density read in
  atomic valenz-charges read in
  non local Contribution for L=           2  read in
    real space projection operators read in
  non local Contribution for L=           2  read in
    real space projection operators read in
  non local Contribution for L=           0  read in
    real space projection operators read in
  non local Contribution for L=           0  read in
    real space projection operators read in
  non local Contribution for L=           1  read in
    real space projection operators read in
  non local Contribution for L=           1  read in
    real space projection operators read in
    PAW grid and wavefunctions read in
 
   number of l-projection  operators is LMAX  =           6
   number of lm-projection operators is LMMAX =          18
 
  PAW_PBE Ir 06Sep2000                  :
 energy of atom  1       EATOM= -560.1833
 kinetic energy error for atom=    0.0056 (will be added to EATOM!!)
  PAW_PBE Pt 04Feb2005                  :
 energy of atom  2       EATOM= -729.1176
 kinetic energy error for atom=    0.0144 (will be added to EATOM!!)
  PAW_PBE Au 04Oct2007                  :
 energy of atom  3       EATOM= -926.0867
 kinetic energy error for atom=    0.0152 (will be added to EATOM!!)
 
 
 POSCAR: Ir Pt Au                                
  positions in cartesian coordinates
  No initial velocities read in
 exchange correlation table for  LEXCH =        8
   RHO(1)=    0.500       N(1)  =     2000
   RHO(2)=  100.500       N(2)  =     4000
 


--------------------------------------------------------------------------------------------------------


 ion  position               nearest neighbor table
   1  0.000  0.000  0.390-   3 2.78   3 2.78   4 2.78   4 2.78   2 2.78   2 2.78   5 2.82   6 2.82
                             7 2.82
   2  0.500  0.000  0.390-   4 2.78   3 2.78   4 2.78   3 2.78   1 2.78   1 2.78   6 2.82   5 2.82
                             8 2.82
   3  0.000  0.500  0.390-   1 2.78   1 2.78   2 2.78   2 2.78   4 2.78   4 2.78   7 2.82   5 2.82
                             8 2.82
   4  0.500  0.500  0.390-   2 2.78   1 2.78   2 2.78   1 2.78   3 2.78   3 2.78   8 2.82   7 2.82
                             6 2.82
   5  0.167  0.167  0.465-   7 2.78   7 2.78   8 2.78   8 2.78   6 2.78   6 2.78   9 2.80  12 2.80
                            10 2.80   1 2.82   3 2.82   2 2.82
   6  0.667  0.167  0.465-   8 2.78   7 2.78   8 2.78   7 2.78   5 2.78   5 2.78  10 2.80  11 2.80
                             9 2.80   2 2.82   4 2.82   1 2.82
   7  0.167  0.667  0.465-   5 2.78   5 2.78   6 2.78   6 2.78   8 2.78   8 2.78  10 2.80  11 2.80
                            12 2.80   3 2.82   4 2.82   1 2.82
   8  0.667  0.667  0.465-   6 2.78   5 2.78   6 2.78   5 2.78   7 2.78   7 2.78   9 2.80  12 2.80
                            11 2.80   4 2.82   2 2.82   3 2.82
   9  0.833  0.333  0.539-  11 2.78  11 2.78  12 2.78  12 2.78  10 2.78  10 2.78   5 2.80   8 2.80
                             6 2.80  16 2.83  13 2.83  15 2.83
  10  0.333  0.333  0.539-  12 2.78  11 2.78  12 2.78  11 2.78   9 2.78   9 2.78   6 2.80   7 2.80
                             5 2.80  15 2.83  14 2.83  16 2.83
  11  0.833  0.833  0.539-   9 2.78   9 2.78  10 2.78  10 2.78  12 2.78  12 2.78   6 2.80   7 2.80
                             8 2.80  13 2.83  16 2.83  14 2.83
  12  0.333  0.833  0.539-  10 2.78   9 2.78  10 2.78   9 2.78  11 2.78  11 2.78   5 2.80   8 2.80
                             7 2.80  14 2.83  15 2.83  13 2.83
  13  0.000  0.000  0.615-  16 2.78  15 2.78  16 2.78  15 2.78  14 2.78  14 2.78  11 2.83   9 2.83
                            12 2.83
  14  0.500  0.000  0.615-  15 2.78  15 2.78  16 2.78  16 2.78  13 2.78  13 2.78  12 2.83  10 2.83
                            11 2.83
  15  0.500  0.500  0.615-  14 2.78  13 2.78  14 2.78  13 2.78  16 2.78  16 2.78  10 2.83  12 2.83
                             9 2.83
  16  0.000  0.500  0.615-  13 2.78  13 2.78  14 2.78  14 2.78  15 2.78  15 2.78   9 2.83  11 2.83
                            10 2.83
 
  LATTYP: Found a hexagonal cell.
 ALAT       =     5.5578593001
 C/A-ratio  =     5.5429542221
  
  Lattice vectors:
  
 A1 = (   2.7789296501,  -4.8132473446,   0.0000000000)
 A2 = (  -5.5578593001,   0.0000000000,   0.0000000000)
 A3 = (   0.0000000000,   0.0000000000, -30.8069596737)


Analysis of symmetry for initial positions (statically):
=====================================================================
 Subroutine PRICEL returns:
 Original cell was already a primitive cell.
 

 Routine SETGRP: Setting up the symmetry group for a 
 hexagonal supercell.


 Subroutine GETGRP returns: Found  2 space group operations
 (whereof  2 operations were pure point group operations)
 out of a pool of 24 trial point group operations.


The static configuration has the point symmetry C_1h.


Analysis of symmetry for dynamics (positions and initial velocities):
=====================================================================
 Subroutine PRICEL returns:
 Original cell was already a primitive cell.
 

 Routine SETGRP: Setting up the symmetry group for a 
 hexagonal supercell.


 Subroutine GETGRP returns: Found  2 space group operations
 (whereof  2 operations were pure point group operations)
 out of a pool of 24 trial point group operations.


The dynamic configuration has the point symmetry C_1h.


Analysis of constrained symmetry for selective dynamics:
=====================================================================
 Subroutine PRICEL returns:
 Original cell was already a primitive cell.
 

 Routine SETGRP: Setting up the symmetry group for a 
 hexagonal supercell.


 Subroutine GETGRP returns: Found  2 space group operations
 (whereof  2 operations were pure point group operations)
 out of a pool of 24 trial point group operations.


The constrained configuration has the point symmetry C_1h.


 Subroutine INISYM returns: Found  2 space group operations
 (whereof  2 operations are pure point group operations),
 and found     1 'primitive' translations

 
 
 KPOINTS: KPOINTS created by Atomic Simulation Env

Automatic generation of k-mesh.
Space group operators:
 irot       det(A)        alpha          n_x          n_y          n_z        tau_x        tau_y        tau_z
    1     1.000000     0.000001     1.000000     0.000000     0.000000     0.000000     0.000000     0.000000
    2    -1.000000   180.000000    -0.500000    -0.866025     0.000000     0.000000     0.000000     0.000000
 
 Subroutine IBZKPT returns following result:
 ===========================================
 
 Found     52 irreducible k-points:
 
 Following reciprocal coordinates:
            Coordinates               Weight
  0.062500  0.062500  0.000000     32.000000
 -0.062500  0.000000  0.000000     16.000000
  0.187500  0.062500  0.000000     32.000000
  0.125000  0.187500  0.000000     32.000000
 -0.062500  0.125000  0.000000     32.000000
  0.312500  0.062500  0.000000     32.000000
  0.250000  0.312500  0.000000     32.000000
 -0.062500  0.250000  0.000000     32.000000
  0.437500  0.062500  0.000000     32.000000
  0.375000  0.437500  0.000000     32.000000
 -0.062500  0.375000  0.000000     32.000000
 -0.437500  0.062500  0.000000     32.000000
  0.500000 -0.437500  0.000000     32.000000
 -0.062500  0.500000  0.000000     32.000000
 -0.312500  0.062500  0.000000     32.000000
 -0.375000 -0.312500  0.000000     32.000000
 -0.062500 -0.375000  0.000000     32.000000
 -0.187500  0.062500  0.000000     32.000000
 -0.250000 -0.187500  0.000000     32.000000
 -0.062500 -0.250000  0.000000     32.000000
 -0.062500  0.062500  0.000000     32.000000
 -0.062500 -0.125000  0.000000     16.000000
  0.187500  0.187500  0.000000     32.000000
 -0.187500  0.000000  0.000000     16.000000
  0.312500  0.187500  0.000000     32.000000
  0.125000  0.312500  0.000000     32.000000
 -0.187500  0.125000  0.000000     32.000000
  0.437500  0.187500  0.000000     32.000000
  0.250000  0.437500  0.000000     32.000000
 -0.187500  0.250000  0.000000     32.000000
 -0.437500  0.187500  0.000000     32.000000
  0.375000 -0.437500  0.000000     32.000000
 -0.187500  0.375000  0.000000     32.000000
 -0.312500  0.187500  0.000000     32.000000
  0.500000 -0.312500  0.000000     32.000000
 -0.187500  0.500000  0.000000     32.000000
 -0.187500  0.187500  0.000000     32.000000
 -0.187500 -0.375000  0.000000     16.000000
  0.312500  0.312500  0.000000     32.000000
 -0.312500  0.000000  0.000000     16.000000
  0.437500  0.312500  0.000000     32.000000
  0.125000  0.437500  0.000000     32.000000
 -0.312500  0.125000  0.000000     32.000000
 -0.437500  0.312500  0.000000     32.000000
  0.250000 -0.437500  0.000000     32.000000
 -0.312500  0.250000  0.000000     32.000000
 -0.312500  0.312500  0.000000     32.000000
 -0.312500  0.375000  0.000000     16.000000
  0.437500  0.437500  0.000000     32.000000
 -0.437500  0.000000  0.000000     16.000000
 -0.437500  0.437500  0.000000     32.000000
 -0.437500  0.125000  0.000000     16.000000
 
 Following cartesian coordinates:
            Coordinates               Weight
  0.011245  0.006492  0.000000     32.000000
 -0.011245  0.006492  0.000000     16.000000
  0.033736 -0.006492  0.000000     32.000000
  0.022491  0.025970  0.000000     32.000000
 -0.011245  0.032462  0.000000     32.000000
  0.056227 -0.019477  0.000000     32.000000
  0.044981  0.038955  0.000000     32.000000
 -0.011245  0.058432  0.000000     32.000000
  0.078717 -0.032462  0.000000     32.000000
  0.067472  0.051940  0.000000     32.000000
 -0.011245  0.084402  0.000000     32.000000
 -0.078717  0.058432  0.000000     32.000000
  0.089963 -0.142835  0.000000     32.000000
 -0.011245  0.110372  0.000000     32.000000
 -0.056227  0.045447  0.000000     32.000000
 -0.067472 -0.025970  0.000000     32.000000
 -0.011245 -0.071417  0.000000     32.000000
 -0.033736  0.032462  0.000000     32.000000
 -0.044981 -0.012985  0.000000     32.000000
 -0.011245 -0.045447  0.000000     32.000000
 -0.011245  0.019477  0.000000     32.000000
 -0.011245 -0.019477  0.000000     16.000000
  0.033736  0.019477  0.000000     32.000000
 -0.033736  0.019477  0.000000     16.000000
  0.056227  0.006492  0.000000     32.000000
  0.022491  0.051940  0.000000     32.000000
 -0.033736  0.045447  0.000000     32.000000
  0.078717 -0.006492  0.000000     32.000000
  0.044981  0.064925  0.000000     32.000000
 -0.033736  0.071417  0.000000     32.000000
 -0.078717  0.084402  0.000000     32.000000
  0.067472 -0.129850  0.000000     32.000000
 -0.033736  0.097387  0.000000     32.000000
 -0.056227  0.071417  0.000000     32.000000
  0.089963 -0.116865  0.000000     32.000000
 -0.033736  0.123357  0.000000     32.000000
 -0.033736  0.058432  0.000000     32.000000
 -0.033736 -0.058432  0.000000     16.000000
  0.056227  0.032462  0.000000     32.000000
 -0.056227  0.032462  0.000000     16.000000
  0.078717  0.019477  0.000000     32.000000
  0.022491  0.077910  0.000000     32.000000
 -0.056227  0.058432  0.000000     32.000000
 -0.078717  0.110372  0.000000     32.000000
  0.044981 -0.116865  0.000000     32.000000
 -0.056227  0.084402  0.000000     32.000000
 -0.056227  0.097387  0.000000     32.000000
 -0.056227  0.110372  0.000000     16.000000
  0.078717  0.045447  0.000000     32.000000
 -0.078717  0.045447  0.000000     16.000000
 -0.078717  0.136342  0.000000     32.000000
 -0.078717  0.071417  0.000000     16.000000
 


--------------------------------------------------------------------------------------------------------




 Dimension of arrays:
   k-points           NKPTS =     52   k-points in BZ     NKDIM =     52   number of bands    NBANDS=     96
   number of dos      NEDOS =    301   number of ions     NIONS =     16
   non local maximal  LDIM  =      6   non local SUM 2l+1 LMDIM =     18
   total plane-waves  NPLWV = 112896
   max r-space proj   IRMAX =      1   max aug-charges    IRDMAX=  10104
   dimension x,y,z NGX =    28 NGY =   28 NGZ =  144
   dimension x,y,z NGXF=    56 NGYF=   56 NGZF=  288
   support grid    NGXF=    56 NGYF=   56 NGZF=  288
   ions per type =               1  14   1
   NGX,Y,Z   is equivalent  to a cutoff of   8.38,  8.38,  7.77 a.u.
   NGXF,Y,Z  is equivalent  to a cutoff of  16.75, 16.75, 15.54 a.u.

 SYSTEM =  unknown system                          
 POSCAR =  Ir Pt Au                                

 Startparameter for this run:
   NWRITE =      2    write-flag & timer
   PREC   = normal    normal or accurate (medium, high low for compatibility)
   ISTART =      0    job   : 0-new  1-cont  2-samecut
   ICHARG =      2    charge: 1-file 2-atom 10-const
   ISPIN  =      1    spin polarized calculation?
   LNONCOLLINEAR =      F non collinear calculations
   LSORBIT =      F    spin-orbit coupling
   INIWAV =      1    electr: 0-lowe 1-rand  2-diag
   LASPH  =      F    aspherical Exc in radial PAW
   METAGGA=      F    non-selfconsistent MetaGGA calc.

 Electronic Relaxation 1
   ENCUT  =  350.0 eV  25.72 Ry    5.07 a.u.   8.48  8.48 46.99*2*pi/ulx,y,z
   ENINI  =  350.0     initial cutoff
   ENAUG  =  359.0 eV  augmentation charge cutoff
   NELM   =     60;   NELMIN=  2; NELMDL= -5     # of ELM steps 
   EDIFF  = 0.1E-04   stopping-criterion for ELM
   LREAL  =      F    real-space projection
   NLSPLINE    = F    spline interpolate recip. space projectors
   LCOMPAT=      F    compatible to vasp.4.4
   GGA_COMPAT  = T    GGA compatible to vasp.4.4-vasp.4.6
   LMAXPAW     = -100 max onsite density
   LMAXMIX     =    2 max onsite mixed and CHGCAR
   VOSKOWN=      0    Vosko Wilk Nusair interpolation
   ROPT   =    0.00000   0.00000   0.00000
 Ionic relaxation
   EDIFFG = -.5E-01   stopping-criterion for IOM
   NSW    =      0    number of steps for IOM
   NBLOCK =      1;   KBLOCK =      1    inner block; outer block 
   IBRION =     -1    ionic relax: 0-MD 1-quasi-New 2-CG
   NFREE  =      1    steps in history (QN), initial steepest desc. (CG)
   ISIF   =      2    stress and relaxation
   IWAVPR =     10    prediction:  0-non 1-charg 2-wave 3-comb
   ISYM   =      2    0-nonsym 1-usesym 2-fastsym
   LCORR  =      T    Harris-Foulkes like correction to forces

   POTIM  = 0.5000    time-step for ionic-motion
   TEIN   =    0.0    initial temperature
   TEBEG  =    0.0;   TEEND  =   0.0 temperature during run
   SMASS  =  -3.00    Nose mass-parameter (am)
   estimated Nose-frequenzy (Omega)   =  0.10E-29 period in steps =****** mass=  -0.706E-27a.u.
   SCALEE = 1.0000    scale energy and forces
   NPACO  =    256;   APACO  = 16.0  distance and # of slots for P.C.
   PSTRESS=    0.0 pullay stress

  Mass of Ions in am
   POMASS = 192.22195.08196.97
  Ionic Valenz
   ZVAL   =   9.00 10.00 11.00
  Atomic Wigner-Seitz radii
   RWIGS  =  -1.00 -1.00 -1.00
  virtual crystal weights 
   VCA    =   1.00  1.00  1.00
   NELECT =     160.0000    total number of electrons
   NUPDOWN=      -1.0000    fix difference up-down

 DOS related values:
   EMIN   =  10.00;   EMAX   =-10.00  energy-range for DOS
   EFERMI =   0.00
   ISMEAR =     1;   SIGMA  =   0.20  broadening in eV -4-tet -1-fermi 0-gaus

 Electronic relaxation 2 (details)
   IALGO  =     38    algorithm
   LDIAG  =      T    sub-space diagonalisation (order eigenvalues)
   LSUBROT=      F    optimize rotation matrix (better conditioning)
   TURBO    =      0    0=normal 1=particle mesh
   IRESTART =      0    0=no restart 2=restart with 2 vectors
   NREBOOT  =      0    no. of reboots
   NMIN     =      0    reboot dimension
   EREF     =   0.00    reference energy to select bands
   IMIX   =      4    mixing-type and parameters
     AMIX     =   0.40;   BMIX     =  1.00
     AMIX_MAG =   1.60;   BMIX_MAG =  1.00
     AMIN     =   0.10
     WC   =   100.;   INIMIX=   1;  MIXPRE=   1;  MAXMIX= -45

 Intra band minimization:
   WEIMIN = 0.0000     energy-eigenvalue tresh-hold
   EBREAK =  0.26E-07  absolut break condition
   DEPER  =   0.30     relativ break condition  

   TIME   =   0.40     timestep for ELM

  volume/ion in A,a.u.               =      51.51       347.59
  Fermi-wavevector in a.u.,A,eV,Ry     =   0.947945  1.791357 12.226201  0.898600
  Thomas-Fermi vector in A             =   2.076087
 
 Write flags
   LWAVE        =      F    write WAVECAR
   LDOWNSAMPLE  =      F    k-point downsampling of WAVECAR
   LCHARG       =      F    write CHGCAR
   LVTOT        =      F    write LOCPOT, total local potential
   LVHAR        =      F    write LOCPOT, Hartree potential only
   LELF         =      F    write electronic localiz. function (ELF)
   LORBIT       =      0    0 simple, 1 ext, 2 COOP (PROOUT), +10 PAW based schemes


 Dipole corrections
   LMONO  =      F    monopole corrections only (constant potential shift)
   LDIPOL =      F    correct potential (dipole corrections)
   IDIPOL =      3    1-x, 2-y, 3-z, 4-all directions 
   EPSILON=  1.0000000 bulk dielectric constant

 Exchange correlation treatment:
   GGA     =    PE    GGA type
   LEXCH   =     8    internal setting for exchange type
   VOSKOWN=      0    Vosko Wilk Nusair interpolation
   LHFCALC =     F    Hartree Fock is set to
   LHFONE  =     F    Hartree Fock one center treatment
   AEXX    =    0.0000 exact exchange contribution

 Linear response parameters
   LEPSILON=     F    determine dielectric tensor
   LRPA    =     F    only Hartree local field effects (RPA)
   LNABLA  =     F    use nabla operator in PAW spheres
   LVEL    =     F    velocity operator in full k-point grid
   LINTERFAST=   F  fast interpolation
   KINTER  =     0    interpolate to denser k-point grid
   CSHIFT  =0.1000    complex shift for real part using Kramers Kronig
   OMEGAMAX=  -1.0    maximum frequency
   DEG_THRESHOLD= 0.2000000E-02 threshold for treating states as degnerate
   RTIME   =   -0.100 relaxation time in fs
  (WPLASMAI=    0.000 imaginary part of plasma frequency in eV, 0.658/RTIME)
   DFIELD  = 0.0000000 0.0000000 0.0000000 field for delta impulse in time
 
 Orbital magnetization related:
   ORBITALMAG=     F  switch on orbital magnetization
   LCHIMAG   =     F  perturbation theory with respect to B field
   DQ        =  0.001000  dq finite difference perturbation B field
   LLRAUG    =     F  two centre corrections for induced B field



--------------------------------------------------------------------------------------------------------


 Static calculation
 charge density and potential will be updated during run
 non-spin polarized calculation
 Variant of blocked Davidson
 Davidson routine will perform the subspace rotation
 perform sub-space diagonalisation
    after iterative eigenvector-optimisation
 modified Broyden-mixing scheme, WC =      100.0
 initial mixing is a Kerker type mixing with AMIX =  0.4000 and BMIX =      1.0000
 Hartree-type preconditioning will be used
 using additional bands           16
 reciprocal scheme for non local part
 use partial core corrections
 calculate Harris-corrections to forces 
   (improved forces if not selfconsistent)
 use gradient corrections 
 use of overlap-Matrix (Vanderbilt PP)
 Methfessel and Paxton  Order N= 1 SIGMA  =   0.20


--------------------------------------------------------------------------------------------------------


  energy-cutoff  :      350.00
  volume of cell :      824.13
      direct lattice vectors                 reciprocal lattice vectors
     5.557859300  0.000000000  0.000000000     0.179925390 -0.103879972  0.000000000
     2.778929650  4.813247345  0.000000000     0.000000000  0.207759944  0.000000000
     0.000000000  0.000000000 30.806959674     0.000000000  0.000000000  0.032460198

  length of vectors
     5.557859300  5.557859300 30.806959674     0.207759944  0.207759944  0.032460198


 
 k-points in units of 2pi/SCALE and weight: KPOINTS created by Atomic Simulation Env
   0.01124534  0.00649250  0.00000000       0.021
  -0.01124534  0.00649250  0.00000000       0.010
   0.03373601 -0.00649250  0.00000000       0.021
   0.02249067  0.02596999  0.00000000       0.021
  -0.01124534  0.03246249  0.00000000       0.021
   0.05622668 -0.01947749  0.00000000       0.021
   0.04498135  0.03895499  0.00000000       0.021
  -0.01124534  0.05843248  0.00000000       0.021
   0.07871736 -0.03246249  0.00000000       0.021
   0.06747202  0.05193999  0.00000000       0.021
  -0.01124534  0.08440248  0.00000000       0.021
  -0.07871736  0.05843248  0.00000000       0.021
   0.08996269 -0.14283496  0.00000000       0.021
  -0.01124534  0.11037247  0.00000000       0.021
  -0.05622668  0.04544749  0.00000000       0.021
  -0.06747202 -0.02596999  0.00000000       0.021
  -0.01124534 -0.07141748  0.00000000       0.021
  -0.03373601  0.03246249  0.00000000       0.021
  -0.04498135 -0.01298500  0.00000000       0.021
  -0.01124534 -0.04544749  0.00000000       0.021
  -0.01124534  0.01947749  0.00000000       0.021
  -0.01124534 -0.01947749  0.00000000       0.010
   0.03373601  0.01947749  0.00000000       0.021
  -0.03373601  0.01947749  0.00000000       0.010
   0.05622668  0.00649250  0.00000000       0.021
   0.02249067  0.05193999  0.00000000       0.021
  -0.03373601  0.04544749  0.00000000       0.021
   0.07871736 -0.00649250  0.00000000       0.021
   0.04498135  0.06492498  0.00000000       0.021
  -0.03373601  0.07141748  0.00000000       0.021
  -0.07871736  0.08440248  0.00000000       0.021
   0.06747202 -0.12984997  0.00000000       0.021
  -0.03373601  0.09738747  0.00000000       0.021
  -0.05622668  0.07141748  0.00000000       0.021
   0.08996269 -0.11686497  0.00000000       0.021
  -0.03373601  0.12335747  0.00000000       0.021
  -0.03373601  0.05843248  0.00000000       0.021
  -0.03373601 -0.05843248  0.00000000       0.010
   0.05622668  0.03246249  0.00000000       0.021
  -0.05622668  0.03246249  0.00000000       0.010
   0.07871736  0.01947749  0.00000000       0.021
   0.02249067  0.07790998  0.00000000       0.021
  -0.05622668  0.05843248  0.00000000       0.021
  -0.07871736  0.11037247  0.00000000       0.021
   0.04498135 -0.11686497  0.00000000       0.021
  -0.05622668  0.08440248  0.00000000       0.021
  -0.05622668  0.09738747  0.00000000       0.021
  -0.05622668  0.11037247  0.00000000       0.010
   0.07871736  0.04544749  0.00000000       0.021
  -0.07871736  0.04544749  0.00000000       0.010
  -0.07871736  0.13634246  0.00000000       0.021
  -0.07871736  0.07141748  0.00000000       0.010
 
 k-points in reciprocal lattice and weights: KPOINTS created by Atomic Simulation Env
   0.06250000  0.06250000  0.00000000       0.021
  -0.06250000  0.00000000  0.00000000       0.010
   0.18750000  0.06250000  0.00000000       0.021
   0.12500000  0.18750000  0.00000000       0.021
  -0.06250000  0.12500000  0.00000000       0.021
   0.31250000  0.06250000  0.00000000       0.021
   0.25000000  0.31250000  0.00000000       0.021
  -0.06250000  0.25000000  0.00000000       0.021
   0.43750000  0.06250000  0.00000000       0.021
   0.37500000  0.43750000  0.00000000       0.021
  -0.06250000  0.37500000  0.00000000       0.021
  -0.43750000  0.06250000  0.00000000       0.021
   0.50000000 -0.43750000  0.00000000       0.021
  -0.06250000  0.50000000  0.00000000       0.021
  -0.31250000  0.06250000  0.00000000       0.021
  -0.37500000 -0.31250000  0.00000000       0.021
  -0.06250000 -0.37500000  0.00000000       0.021
  -0.18750000  0.06250000  0.00000000       0.021
  -0.25000000 -0.18750000  0.00000000       0.021
  -0.06250000 -0.25000000  0.00000000       0.021
  -0.06250000  0.06250000  0.00000000       0.021
  -0.06250000 -0.12500000  0.00000000       0.010
   0.18750000  0.18750000  0.00000000       0.021
  -0.18750000  0.00000000  0.00000000       0.010
   0.31250000  0.18750000  0.00000000       0.021
   0.12500000  0.31250000  0.00000000       0.021
  -0.18750000  0.12500000  0.00000000       0.021
   0.43750000  0.18750000  0.00000000       0.021
   0.25000000  0.43750000  0.00000000       0.021
  -0.18750000  0.25000000  0.00000000       0.021
  -0.43750000  0.18750000  0.00000000       0.021
   0.37500000 -0.43750000  0.00000000       0.021
  -0.18750000  0.37500000  0.00000000       0.021
  -0.31250000  0.18750000  0.00000000       0.021
   0.50000000 -0.31250000  0.00000000       0.021
  -0.18750000  0.50000000  0.00000000       0.021
  -0.18750000  0.18750000  0.00000000       0.021
  -0.18750000 -0.37500000  0.00000000       0.010
   0.31250000  0.31250000  0.00000000       0.021
  -0.31250000  0.00000000  0.00000000       0.010
   0.43750000  0.31250000  0.00000000       0.021
   0.12500000  0.43750000  0.00000000       0.021
  -0.31250000  0.12500000  0.00000000       0.021
  -0.43750000  0.31250000  0.00000000       0.021
   0.25000000 -0.43750000  0.00000000       0.021
  -0.31250000  0.25000000  0.00000000       0.021
  -0.31250000  0.31250000  0.00000000       0.021
  -0.31250000  0.37500000  0.00000000       0.010
   0.43750000  0.43750000  0.00000000       0.021
  -0.43750000  0.00000000  0.00000000       0.010
  -0.43750000  0.43750000  0.00000000       0.021
  -0.43750000  0.12500000  0.00000000       0.010
 
 position of ions in fractional coordinates (direct lattice) 
   0.00000000  0.00000000  0.38952237
   0.50000000  0.00000000  0.38952237
   0.00000000  0.50000000  0.38952237
   0.50000000  0.50000000  0.38952237
   0.16666667  0.16666667  0.46468540
   0.66666667  0.16666667  0.46468540
   0.16666667  0.66666667  0.46468540
   0.66666667  0.66666667  0.46468540
   0.83333333  0.33333333  0.53920296
   0.33333333  0.33333333  0.53920296
   0.83333333  0.83333333  0.53920296
   0.33333333  0.83333333  0.53920296
   0.00000000  0.00000000  0.61486043
   0.50000000  0.00000000  0.61486043
   0.50000000  0.50000000  0.61486043
   0.00000000  0.50000000  0.61486043
 
 position of ions in cartesian coordinates  (Angst):
   0.00000000  0.00000000 12.00000000
   2.77892965  0.00000000 12.00000000
   1.38946483  2.40662367 12.00000000
   4.16839448  2.40662367 12.00000000
   1.38946483  0.80220789 14.31554441
   4.16839448  0.80220789 14.31554441
   2.77892965  3.20883156 14.31554441
   5.55785930  3.20883156 14.31554441
   5.55785930  1.60441578 16.61120399
   2.77892965  1.60441578 16.61120399
   6.94732413  4.01103945 16.61120399
   4.16839448  4.01103945 16.61120399
   0.00000000  0.00000000 18.94198048
   2.77892965  0.00000000 18.94198048
   4.16839448  2.40662367 18.94198048
   1.38946483  2.40662367 18.94198048
 


--------------------------------------------------------------------------------------------------------


 k-point  1 :   0.0625 0.0625 0.0000  plane waves:   12325
 k-point  2 :  -0.0625 0.0000 0.0000  plane waves:   12325
 k-point  3 :   0.1875 0.0625 0.0000  plane waves:   12294
 k-point  4 :   0.1250 0.1875 0.0000  plane waves:   12294
 k-point  5 :  -0.0625 0.1250 0.0000  plane waves:   12294
 k-point  6 :   0.3125 0.0625 0.0000  plane waves:   12263
 k-point  7 :   0.2500 0.3125 0.0000  plane waves:   12263
 k-point  8 :  -0.0625 0.2500 0.0000  plane waves:   12263
 k-point  9 :   0.4375 0.0625 0.0000  plane waves:   12221
 k-point 10 :   0.3750 0.4375 0.0000  plane waves:   12221
 k-point 11 :  -0.0625 0.3750 0.0000  plane waves:   12221
 k-point 12 :  -0.4375 0.0625 0.0000  plane waves:   12211
 k-point 13 :   0.5000-0.4375 0.0000  plane waves:   12211
 k-point 14 :  -0.0625 0.5000 0.0000  plane waves:   12211
 k-point 15 :  -0.3125 0.0625 0.0000  plane waves:   12242
 k-point 16 :  -0.3750-0.3125 0.0000  plane waves:   12242
 k-point 17 :  -0.0625-0.3750 0.0000  plane waves:   12242
 k-point 18 :  -0.1875 0.0625 0.0000  plane waves:   12280
 k-point 19 :  -0.2500-0.1875 0.0000  plane waves:   12280
 k-point 20 :  -0.0625-0.2500 0.0000  plane waves:   12280
 k-point 21 :  -0.0625 0.0625 0.0000  plane waves:   12329
 k-point 22 :  -0.0625-0.1250 0.0000  plane waves:   12329
 k-point 23 :   0.1875 0.1875 0.0000  plane waves:   12277
 k-point 24 :  -0.1875 0.0000 0.0000  plane waves:   12277
 k-point 25 :   0.3125 0.1875 0.0000  plane waves:   12288
 k-point 26 :   0.1250 0.3125 0.0000  plane waves:   12288
 k-point 27 :  -0.1875 0.1250 0.0000  plane waves:   12288
 k-point 28 :   0.4375 0.1875 0.0000  plane waves:   12234
 k-point 29 :   0.2500 0.4375 0.0000  plane waves:   12234
 k-point 30 :  -0.1875 0.2500 0.0000  plane waves:   12234
 k-point 31 :  -0.4375 0.1875 0.0000  plane waves:   12216
 k-point 32 :   0.3750-0.4375 0.0000  plane waves:   12216
 k-point 33 :  -0.1875 0.3750 0.0000  plane waves:   12216
 k-point 34 :  -0.3125 0.1875 0.0000  plane waves:   12215
 k-point 35 :   0.5000-0.3125 0.0000  plane waves:   12215
 k-point 36 :  -0.1875 0.5000 0.0000  plane waves:   12215
 k-point 37 :  -0.1875 0.1875 0.0000  plane waves:   12289
 k-point 38 :  -0.1875-0.3750 0.0000  plane waves:   12289
 k-point 39 :   0.3125 0.3125 0.0000  plane waves:   12275
 k-point 40 :  -0.3125 0.0000 0.0000  plane waves:   12275
 k-point 41 :   0.4375 0.3125 0.0000  plane waves:   12239
 k-point 42 :   0.1250 0.4375 0.0000  plane waves:   12239
 k-point 43 :  -0.3125 0.1250 0.0000  plane waves:   12239
 k-point 44 :  -0.4375 0.3125 0.0000  plane waves:   12235
 k-point 45 :   0.2500-0.4375 0.0000  plane waves:   12235
 k-point 46 :  -0.3125 0.2500 0.0000  plane waves:   12235
 k-point 47 :  -0.3125 0.3125 0.0000  plane waves:   12232
 k-point 48 :  -0.3125 0.3750 0.0000  plane waves:   12232
 k-point 49 :   0.4375 0.4375 0.0000  plane waves:   12200
 k-point 50 :  -0.4375 0.0000 0.0000  plane waves:   12200
 k-point 51 :  -0.4375 0.4375 0.0000  plane waves:   12214
 k-point 52 :  -0.4375 0.1250 0.0000  plane waves:   12214

 maximum and minimum number of plane-waves per node :     12329    12200

 maximum number of plane-waves:     12329
 maximum index in each direction: 
   IXMAX=    8   IYMAX=    8   IZMAX=   46
   IXMIN=   -8   IYMIN=   -8   IZMIN=  -46


 serial   3D FFT for wavefunctions
 parallel 3D FFT for charge:
    minimum data exchange during FFTs selected (reduces bandwidth)


 total amount of memory used by VASP MPI-rank0   362189. kBytes
=======================================================================

   base      :      30000. kBytes
   nonl-proj :     280273. kBytes
   fftplans  :       2015. kBytes
   grid      :       7641. kBytes
   one-center:        248. kBytes
   wavefun   :      42012. kBytes
 
     INWAV:  cpu time    0.0000: real time    0.0000
 Broyden mixing: mesh for mixing (old mesh)
   NGX = 17   NGY = 17   NGZ = 93
  (NGX  = 56   NGY  = 56   NGZ  =288)
  gives a total of  26877 points

 initial charge density was supplied:
 charge density of overlapping atoms calculated
 number of electron     160.0000000 magnetization 
 keeping initial charge density in first step


--------------------------------------------------------------------------------------------------------


 Maximum index for augmentation-charges          824 (set IRDMAX)


--------------------------------------------------------------------------------------------------------


 First call to EWALD:  gamma=   0.189
 Maximum number of real-space cells 5x 5x 1
 Maximum number of reciprocal cells 2x 2x 8

    FEWALD:  cpu time    0.0014: real time    0.0014


--------------------------------------- Iteration      1(   1)  ---------------------------------------


    POTLOK:  cpu time    0.0194: real time    0.0259
    SETDIJ:  cpu time    0.0022: real time    0.0022
     EDDAV:  cpu time    9.0424: real time    9.0442
       DOS:  cpu time    0.0017: real time    0.0017
    --------------------------------------------
      LOOP:  cpu time    9.0657: real time    9.0741

 eigenvalue-minimisations  :  9984
 total energy-change (2. order) : 0.9776436E+03  (-0.5547765E+04)
 number of electron     160.0000000 magnetization 
 augmentation part      160.0000000 magnetization 

 Free energy of the ion-electron system (eV)
  ---------------------------------------------------
  alpha Z        PSCENC =       303.52543553
  Ewald energy   TEWEN  =     98433.56053661
  -Hartree energ DENC   =   -110505.05101069
  -exchange      EXHF   =         0.00000000
  -V(xc)+E(xc)   XCENC  =        46.26589279
  PAW double counting   =     11171.21661038   -10711.84633960
  entropy T*S    EENTRO =        -0.00669584
  eigenvalues    EBANDS =       546.28501096
  atomic energy  EATOM  =     11693.69420960
  Solvation  Ediel_sol  =         0.00000000
  ---------------------------------------------------
  free energy    TOTEN  =       977.64364973 eV

  energy without entropy =      977.65034557  energy(sigma->0) =      977.64588168


--------------------------------------------------------------------------------------------------------




--------------------------------------- Iteration      1(   2)  ---------------------------------------


     EDDAV:  cpu time   12.8546: real time   12.8598
       DOS:  cpu time    0.0017: real time    0.0017
    --------------------------------------------
      LOOP:  cpu time   12.8563: real time   12.8615

 eigenvalue-minimisations  : 14544
 total energy-change (2. order) :-0.1016265E+04  (-0.9853144E+03)
 number of electron     160.0000000 magnetization 
 augmentation part      160.0000000 magnetization 

 Free energy of the ion-electron system (eV)
  ---------------------------------------------------
  alpha Z        PSCENC =       303.52543553
  Ewald energy   TEWEN  =     98433.56053661
  -Hartree energ DENC   =   -110505.05101069
  -exchange      EXHF   =         0.00000000
  -V(xc)+E(xc)   XCENC  =        46.26589279
  PAW double counting   =     11171.21661038   -10711.84633960
  entropy T*S    EENTRO =        -0.00246779
  eigenvalues    EBANDS =      -469.98435419
  atomic energy  EATOM  =     11693.69420960
  Solvation  Ediel_sol  =         0.00000000
  ---------------------------------------------------
  free energy    TOTEN  =       -38.62148737 eV

  energy without entropy =      -38.61901958  energy(sigma->0) =      -38.62066477


--------------------------------------------------------------------------------------------------------




--------------------------------------- Iteration      1(   3)  ---------------------------------------


     EDDAV:  cpu time   11.1650: real time   11.1665
       DOS:  cpu time    0.0018: real time    0.0018
    --------------------------------------------
      LOOP:  cpu time   11.1668: real time   11.1683

 eigenvalue-minimisations  : 12480
 total energy-change (2. order) :-0.5839015E+02  (-0.5650027E+02)
 number of electron     160.0000000 magnetization 
 augmentation part      160.0000000 magnetization 

 Free energy of the ion-electron system (eV)
  ---------------------------------------------------
  alpha Z        PSCENC =       303.52543553
  Ewald energy   TEWEN  =     98433.56053661
  -Hartree energ DENC   =   -110505.05101069
  -exchange      EXHF   =         0.00000000
  -V(xc)+E(xc)   XCENC  =        46.26589279
  PAW double counting   =     11171.21661038   -10711.84633960
  entropy T*S    EENTRO =        -0.02541564
  eigenvalues    EBANDS =      -528.35155542
  atomic energy  EATOM  =     11693.69420960
  Solvation  Ediel_sol  =         0.00000000
  ---------------------------------------------------
  free energy    TOTEN  =       -97.01163645 eV

  energy without entropy =      -96.98622081  energy(sigma->0) =      -97.00316457


--------------------------------------------------------------------------------------------------------




--------------------------------------- Iteration      1(   4)  ---------------------------------------


     EDDAV:  cpu time   12.3743: real time   12.3783
       DOS:  cpu time    0.0018: real time    0.0018
    --------------------------------------------
      LOOP:  cpu time   12.3761: real time   12.3801

 eigenvalue-minimisations  : 14112
 total energy-change (2. order) :-0.1242066E+01  (-0.1236233E+01)
 number of electron     160.0000000 magnetization 
 augmentation part      160.0000000 magnetization 

 Free energy of the ion-electron system (eV)
  ---------------------------------------------------
  alpha Z        PSCENC =       303.52543553
  Ewald energy   TEWEN  =     98433.56053661
  -Hartree energ DENC   =   -110505.05101069
  -exchange      EXHF   =         0.00000000
  -V(xc)+E(xc)   XCENC  =        46.26589279
  PAW double counting   =     11171.21661038   -10711.84633960
  entropy T*S    EENTRO =        -0.02601265
  eigenvalues    EBANDS =      -529.59302489
  atomic energy  EATOM  =     11693.69420960
  Solvation  Ediel_sol  =         0.00000000
  ---------------------------------------------------
  free energy    TOTEN  =       -98.25370293 eV

  energy without entropy =      -98.22769028  energy(sigma->0) =      -98.24503204


--------------------------------------------------------------------------------------------------------




--------------------------------------- Iteration      1(   5)  ---------------------------------------


     EDDAV:  cpu time   13.3595: real time   13.3612
       DOS:  cpu time    0.0017: real time    0.0017
    CHARGE:  cpu time    0.3183: real time    0.3183
    MIXING:  cpu time    0.0010: real time    0.0010
    --------------------------------------------
      LOOP:  cpu time   13.6804: real time   13.6822

 eigenvalue-minimisations  : 15264
 total energy-change (2. order) :-0.3597468E-01  (-0.3596478E-01)
 number of electron     160.0000093 magnetization 
 augmentation part       46.9811154 magnetization 

 Broyden mixing:
  rms(total) = 0.41705E+01    rms(broyden)= 0.41704E+01
  rms(prec ) = 0.41997E+01
  weight for this iteration     100.00

 Free energy of the ion-electron system (eV)
  ---------------------------------------------------
  alpha Z        PSCENC =       303.52543553
  Ewald energy   TEWEN  =     98433.56053661
  -Hartree energ DENC   =   -110505.05101069
  -exchange      EXHF   =         0.00000000
  -V(xc)+E(xc)   XCENC  =        46.26589279
  PAW double counting   =     11171.21661038   -10711.84633960
  entropy T*S    EENTRO =        -0.02599346
  eigenvalues    EBANDS =      -529.62901876
  atomic energy  EATOM  =     11693.69420960
  Solvation  Ediel_sol  =         0.00000000
  ---------------------------------------------------
  free energy    TOTEN  =       -98.28967761 eV

  energy without entropy =      -98.26368415  energy(sigma->0) =      -98.28101312


--------------------------------------------------------------------------------------------------------




--------------------------------------- Iteration      1(   6)  ---------------------------------------


    POTLOK:  cpu time    0.0175: real time    0.0198
    SETDIJ:  cpu time    0.0021: real time    0.0021
     EDDAV:  cpu time   10.4947: real time   10.4960
       DOS:  cpu time    0.0018: real time    0.0018
    CHARGE:  cpu time    0.3192: real time    0.3192
    MIXING:  cpu time    0.0007: real time    0.0008
    --------------------------------------------
      LOOP:  cpu time   10.8360: real time   10.8397

 eigenvalue-minimisations  : 11880
 total energy-change (2. order) : 0.4001524E+01  (-0.2892577E+01)
 number of electron     160.0000089 magnetization 
 augmentation part       49.5399197 magnetization 

 Broyden mixing:
  rms(total) = 0.30113E+01    rms(broyden)= 0.30113E+01
  rms(prec ) = 0.30963E+01
  weight for this iteration     100.00

 eigenvalues of (default mixing * dielectric matrix)
  average eigenvalue GAMMA=   1.3287
  1.3287

 Free energy of the ion-electron system (eV)
  ---------------------------------------------------
  alpha Z        PSCENC =       303.52543553
  Ewald energy   TEWEN  =     98433.56053661
  -Hartree energ DENC   =   -110316.34470871
  -exchange      EXHF   =         0.00000000
  -V(xc)+E(xc)   XCENC  =        42.09437425
  PAW double counting   =     12324.50626381   -11888.38976059
  entropy T*S    EENTRO =        -0.02893318
  eigenvalues    EBANDS =      -686.90557081
  atomic energy  EATOM  =     11693.69420960
  Solvation  Ediel_sol  =         0.00000000
  ---------------------------------------------------
  free energy    TOTEN  =       -94.28815349 eV

  energy without entropy =      -94.25922031  energy(sigma->0) =      -94.27850910


--------------------------------------------------------------------------------------------------------




--------------------------------------- Iteration      1(   7)  ---------------------------------------


    POTLOK:  cpu time    0.0164: real time    0.0210
    SETDIJ:  cpu time    0.0023: real time    0.0023
     EDDAV:  cpu time   11.0019: real time   11.0032
       DOS:  cpu time    0.0018: real time    0.0018
    CHARGE:  cpu time    0.3189: real time    0.3189
    MIXING:  cpu time    0.0006: real time    0.0006
    --------------------------------------------
      LOOP:  cpu time   11.3418: real time   11.3478

 eigenvalue-minimisations  : 12456
 total energy-change (2. order) :-0.2444637E+02  (-0.1720771E+02)
 number of electron     160.0000107 magnetization 
 augmentation part       48.7945349 magnetization 

 Broyden mixing:
  rms(total) = 0.44813E+01    rms(broyden)= 0.44812E+01
  rms(prec ) = 0.49599E+01
  weight for this iteration     100.00

 eigenvalues of (default mixing * dielectric matrix)
  average eigenvalue GAMMA=   1.1846
  2.1109  0.2584

 Free energy of the ion-electron system (eV)
  ---------------------------------------------------
  alpha Z        PSCENC =       303.52543553
  Ewald energy   TEWEN  =     98433.56053661
  -Hartree energ DENC   =   -110487.42946176
  -exchange      EXHF   =         0.00000000
  -V(xc)+E(xc)   XCENC  =        40.90786278
  PAW double counting   =     13226.17349470   -12800.72021629
  entropy T*S    EENTRO =         0.00417929
  eigenvalues    EBANDS =      -528.45056780
  atomic energy  EATOM  =     11693.69420960
  Solvation  Ediel_sol  =         0.00000000
  ---------------------------------------------------
  free energy    TOTEN  =      -118.73452735 eV

  energy without entropy =     -118.73870664  energy(sigma->0) =     -118.73592045


--------------------------------------------------------------------------------------------------------




--------------------------------------- Iteration      1(   8)  ---------------------------------------


    POTLOK:  cpu time    0.0165: real time    0.0166
    SETDIJ:  cpu time    0.0023: real time    0.0023
     EDDAV:  cpu time   12.8544: real time   12.8559
       DOS:  cpu time    0.0017: real time    0.0017
    CHARGE:  cpu time    0.3184: real time    0.3185
    MIXING:  cpu time    0.0006: real time    0.0006
    --------------------------------------------
      LOOP:  cpu time   13.1939: real time   13.1956

 eigenvalue-minimisations  : 14832
 total energy-change (2. order) : 0.2362279E+02  (-0.6729466E+01)
 number of electron     160.0000106 magnetization 
 augmentation part       50.4184735 magnetization 

 Broyden mixing:
  rms(total) = 0.15462E+01    rms(broyden)= 0.15461E+01
  rms(prec ) = 0.16908E+01
  weight for this iteration     100.00

 eigenvalues of (default mixing * dielectric matrix)
  average eigenvalue GAMMA=   1.0028
  2.0945  0.6014  0.3125

 Free energy of the ion-electron system (eV)
  ---------------------------------------------------
  alpha Z        PSCENC =       303.52543553
  Ewald energy   TEWEN  =     98433.56053661
  -Hartree energ DENC   =   -110322.49354581
  -exchange      EXHF   =         0.00000000
  -V(xc)+E(xc)   XCENC  =        39.90645328
  PAW double counting   =     14057.51115140   -13643.20435789
  entropy T*S    EENTRO =        -0.04002161
  eigenvalues    EBANDS =      -657.57160008
  atomic energy  EATOM  =     11693.69420960
  Solvation  Ediel_sol  =         0.00000000
  ---------------------------------------------------
  free energy    TOTEN  =       -95.11173896 eV

  energy without entropy =      -95.07171736  energy(sigma->0) =      -95.09839843


--------------------------------------------------------------------------------------------------------




--------------------------------------- Iteration      1(   9)  ---------------------------------------


    POTLOK:  cpu time    0.0169: real time    0.0180
    SETDIJ:  cpu time    0.0022: real time    0.0022
     EDDAV:  cpu time   10.4517: real time   10.4530
       DOS:  cpu time    0.0018: real time    0.0018
    CHARGE:  cpu time    0.3193: real time    0.3193
    MIXING:  cpu time    0.0008: real time    0.0008
    --------------------------------------------
      LOOP:  cpu time   10.7928: real time   10.7952

 eigenvalue-minimisations  : 11784
 total energy-change (2. order) : 0.8177054E+00  (-0.3581925E+01)
 number of electron     160.0000088 magnetization 
 augmentation part       50.3631317 magnetization 

 Broyden mixing:
  rms(total) = 0.16077E+01    rms(broyden)= 0.16075E+01
  rms(prec ) = 0.17131E+01
  weight for this iteration     100.00

 eigenvalues of (default mixing * dielectric matrix)
  average eigenvalue GAMMA=   0.8975
  2.1095  0.9174  0.2815  0.2815

 Free energy of the ion-electron system (eV)
  ---------------------------------------------------
  alpha Z        PSCENC =       303.52543553
  Ewald energy   TEWEN  =     98433.56053661
  -Hartree energ DENC   =   -110318.42770528
  -exchange      EXHF   =         0.00000000
  -V(xc)+E(xc)   XCENC  =        40.33753061
  PAW double counting   =     14190.46552520   -13775.40072650
  entropy T*S    EENTRO =        -0.02823330
  eigenvalues    EBANDS =      -662.02060599
  atomic energy  EATOM  =     11693.69420960
  Solvation  Ediel_sol  =         0.00000000
  ---------------------------------------------------
  free energy    TOTEN  =       -94.29403352 eV

  energy without entropy =      -94.26580023  energy(sigma->0) =      -94.28462242


--------------------------------------------------------------------------------------------------------




--------------------------------------- Iteration      1(  10)  ---------------------------------------


    POTLOK:  cpu time    0.0179: real time    0.0179
    SETDIJ:  cpu time    0.0021: real time    0.0021
     EDDAV:  cpu time   13.4351: real time   13.4368
       DOS:  cpu time    0.0018: real time    0.0018
    CHARGE:  cpu time    0.3185: real time    0.3185
    MIXING:  cpu time    0.0007: real time    0.0007
    --------------------------------------------
      LOOP:  cpu time   13.7761: real time   13.7778

 eigenvalue-minimisations  : 15600
 total energy-change (2. order) : 0.9921274E+00  (-0.1525913E+01)
 number of electron     160.0000094 magnetization 
 augmentation part       50.2130498 magnetization 

 Broyden mixing:
  rms(total) = 0.12349E+01    rms(broyden)= 0.12348E+01
  rms(prec ) = 0.15853E+01
  weight for this iteration     100.00

 eigenvalues of (default mixing * dielectric matrix)
  average eigenvalue GAMMA=   0.7363
  2.1256  0.9155  0.2771  0.2771  0.0864

 Free energy of the ion-electron system (eV)
  ---------------------------------------------------
  alpha Z        PSCENC =       303.52543553
  Ewald energy   TEWEN  =     98433.56053661
  -Hartree energ DENC   =   -110314.80241691
  -exchange      EXHF   =         0.00000000
  -V(xc)+E(xc)   XCENC  =        40.47269721
  PAW double counting   =     14277.23952659   -13861.94861826
  entropy T*S    EENTRO =        -0.00413996
  eigenvalues    EBANDS =      -665.03913655
  atomic energy  EATOM  =     11693.69420960
  Solvation  Ediel_sol  =         0.00000000
  ---------------------------------------------------
  free energy    TOTEN  =       -93.30190614 eV

  energy without entropy =      -93.29776618  energy(sigma->0) =      -93.30052615


--------------------------------------------------------------------------------------------------------




--------------------------------------- Iteration      1(  11)  ---------------------------------------


    POTLOK:  cpu time    0.0166: real time    0.0166
    SETDIJ:  cpu time    0.0023: real time    0.0023
     EDDAV:  cpu time   12.1038: real time   12.1053
       DOS:  cpu time    0.0018: real time    0.0018
    CHARGE:  cpu time    0.3187: real time    0.3187
    MIXING:  cpu time    0.0007: real time    0.0007
    --------------------------------------------
      LOOP:  cpu time   12.4439: real time   12.4455

 eigenvalue-minimisations  : 13896
 total energy-change (2. order) : 0.1072330E+01  (-0.7547417E+00)
 number of electron     160.0000093 magnetization 
 augmentation part       50.1621182 magnetization 

 Broyden mixing:
  rms(total) = 0.54087E+00    rms(broyden)= 0.54079E+00
  rms(prec ) = 0.59395E+00
  weight for this iteration     100.00

 eigenvalues of (default mixing * dielectric matrix)
  average eigenvalue GAMMA=   0.7338
  2.1561  0.9876  0.4684  0.4340  0.2747  0.0820

 Free energy of the ion-electron system (eV)
  ---------------------------------------------------
  alpha Z        PSCENC =       303.52543553
  Ewald energy   TEWEN  =     98433.56053661
  -Hartree energ DENC   =   -110318.92513297
  -exchange      EXHF   =         0.00000000
  -V(xc)+E(xc)   XCENC  =        40.48436827
  PAW double counting   =     14289.84224628   -13874.61145986
  entropy T*S    EENTRO =        -0.03490350
  eigenvalues    EBANDS =      -659.76487619
  atomic energy  EATOM  =     11693.69420960
  Solvation  Ediel_sol  =         0.00000000
  ---------------------------------------------------
  free energy    TOTEN  =       -92.22957623 eV

  energy without entropy =      -92.19467272  energy(sigma->0) =      -92.21794173


--------------------------------------------------------------------------------------------------------




--------------------------------------- Iteration      1(  12)  ---------------------------------------


    POTLOK:  cpu time    0.0169: real time    0.0246
    SETDIJ:  cpu time    0.0023: real time    0.0023
     EDDAV:  cpu time   10.6431: real time   10.6443
       DOS:  cpu time    0.0018: real time    0.0018
    CHARGE:  cpu time    0.3173: real time    0.3174
    MIXING:  cpu time    0.0008: real time    0.0008
    --------------------------------------------
      LOOP:  cpu time   10.9822: real time   10.9912

 eigenvalue-minimisations  : 12000
 total energy-change (2. order) : 0.4358818E-01  (-0.2736579E+00)
 number of electron     160.0000096 magnetization 
 augmentation part       50.1360534 magnetization 

 Broyden mixing:
  rms(total) = 0.41010E+00    rms(broyden)= 0.41006E+00
  rms(prec ) = 0.51842E+00
  weight for this iteration     100.00

 eigenvalues of (default mixing * dielectric matrix)
  average eigenvalue GAMMA=   0.6930
  2.1093  1.0492  0.5132  0.5132  0.2942  0.2942  0.0776

 Free energy of the ion-electron system (eV)
  ---------------------------------------------------
  alpha Z        PSCENC =       303.52543553
  Ewald energy   TEWEN  =     98433.56053661
  -Hartree energ DENC   =   -110322.02005256
  -exchange      EXHF   =         0.00000000
  -V(xc)+E(xc)   XCENC  =        40.49711338
  PAW double counting   =     14305.36010824   -13890.48702957
  entropy T*S    EENTRO =        -0.05264109
  eigenvalues    EBANDS =      -656.26366818
  atomic energy  EATOM  =     11693.69420960
  Solvation  Ediel_sol  =         0.00000000
  ---------------------------------------------------
  free energy    TOTEN  =       -92.18598805 eV

  energy without entropy =      -92.13334695  energy(sigma->0) =      -92.16844102


--------------------------------------------------------------------------------------------------------




--------------------------------------- Iteration      1(  13)  ---------------------------------------


    POTLOK:  cpu time    0.0168: real time    0.0168
    SETDIJ:  cpu time    0.0023: real time    0.0023
     EDDAV:  cpu time   12.0862: real time   12.0876
       DOS:  cpu time    0.0018: real time    0.0018
    CHARGE:  cpu time    0.3192: real time    0.3192
    MIXING:  cpu time    0.0009: real time    0.0009
    --------------------------------------------
      LOOP:  cpu time   12.4271: real time   12.4286

 eigenvalue-minimisations  : 13896
 total energy-change (2. order) : 0.1223853E+00  (-0.1281741E+00)
 number of electron     160.0000096 magnetization 
 augmentation part       50.1233725 magnetization 

 Broyden mixing:
  rms(total) = 0.24648E+00    rms(broyden)= 0.24645E+00
  rms(prec ) = 0.25893E+00
  weight for this iteration     100.00

 eigenvalues of (default mixing * dielectric matrix)
  average eigenvalue GAMMA=   0.7297
  2.0711  1.1230  1.1230  0.5547  0.3417  0.3110  0.2360  0.0775

 Free energy of the ion-electron system (eV)
  ---------------------------------------------------
  alpha Z        PSCENC =       303.52543553
  Ewald energy   TEWEN  =     98433.56053661
  -Hartree energ DENC   =   -110322.97542370
  -exchange      EXHF   =         0.00000000
  -V(xc)+E(xc)   XCENC  =        40.50752082
  PAW double counting   =     14282.35050344   -13867.39034011
  entropy T*S    EENTRO =        -0.03500094
  eigenvalues    EBANDS =      -655.30104404
  atomic energy  EATOM  =     11693.69420960
  Solvation  Ediel_sol  =         0.00000000
  ---------------------------------------------------
  free energy    TOTEN  =       -92.06360279 eV

  energy without entropy =      -92.02860185  energy(sigma->0) =      -92.05193581


--------------------------------------------------------------------------------------------------------




--------------------------------------- Iteration      1(  14)  ---------------------------------------


    POTLOK:  cpu time    0.0170: real time    0.0182
    SETDIJ:  cpu time    0.0023: real time    0.0023
     EDDAV:  cpu time   13.8385: real time   13.8404
       DOS:  cpu time    0.0018: real time    0.0018
    CHARGE:  cpu time    0.3188: real time    0.3188
    MIXING:  cpu time    0.0009: real time    0.0009
    --------------------------------------------
      LOOP:  cpu time   14.1793: real time   14.1824

 eigenvalue-minimisations  : 16104
 total energy-change (2. order) :-0.2740029E-03  (-0.3833682E-01)
 number of electron     160.0000095 magnetization 
 augmentation part       50.1131152 magnetization 

 Broyden mixing:
  rms(total) = 0.21344E+00    rms(broyden)= 0.21343E+00
  rms(prec ) = 0.26134E+00
  weight for this iteration     100.00

 eigenvalues of (default mixing * dielectric matrix)
  average eigenvalue GAMMA=   0.7668
  1.8921  1.5525  1.5525  0.5580  0.3710  0.3710  0.2886  0.2375  0.0776

 Free energy of the ion-electron system (eV)
  ---------------------------------------------------
  alpha Z        PSCENC =       303.52543553
  Ewald energy   TEWEN  =     98433.56053661
  -Hartree energ DENC   =   -110325.71444646
  -exchange      EXHF   =         0.00000000
  -V(xc)+E(xc)   XCENC  =        40.53523208
  PAW double counting   =     14249.38220060   -13834.40852829
  entropy T*S    EENTRO =        -0.03795478
  eigenvalues    EBANDS =      -652.60056168
  atomic energy  EATOM  =     11693.69420960
  Solvation  Ediel_sol  =         0.00000000
  ---------------------------------------------------
  free energy    TOTEN  =       -92.06387679 eV

  energy without entropy =      -92.02592201  energy(sigma->0) =      -92.05122520


--------------------------------------------------------------------------------------------------------




--------------------------------------- Iteration      1(  15)  ---------------------------------------


    POTLOK:  cpu time    0.0172: real time    0.0172
    SETDIJ:  cpu time    0.0021: real time    0.0021
     EDDAV:  cpu time   11.1476: real time   11.1489
       DOS:  cpu time    0.0018: real time    0.0018
    CHARGE:  cpu time    0.3172: real time    0.3173
    MIXING:  cpu time    0.0009: real time    0.0009
    --------------------------------------------
      LOOP:  cpu time   11.4867: real time   11.4882

 eigenvalue-minimisations  : 12648
 total energy-change (2. order) :-0.8237274E-02  (-0.9373094E-02)
 number of electron     160.0000095 magnetization 
 augmentation part       50.0982260 magnetization 

 Broyden mixing:
  rms(total) = 0.21382E+00    rms(broyden)= 0.21381E+00
  rms(prec ) = 0.28960E+00
  weight for this iteration     100.00

 eigenvalues of (default mixing * dielectric matrix)
  average eigenvalue GAMMA=   0.8217
  2.2440  2.2440  1.2271  0.6725  0.4577  0.4577  0.2998  0.2998  0.2367  0.0775

 Free energy of the ion-electron system (eV)
  ---------------------------------------------------
  alpha Z        PSCENC =       303.52543553
  Ewald energy   TEWEN  =     98433.56053661
  -Hartree energ DENC   =   -110328.75580770
  -exchange      EXHF   =         0.00000000
  -V(xc)+E(xc)   XCENC  =        40.55490563
  PAW double counting   =     14218.64993273   -13803.68191365
  entropy T*S    EENTRO =        -0.03667518
  eigenvalues    EBANDS =      -649.58273764
  atomic energy  EATOM  =     11693.69420960
  Solvation  Ediel_sol  =         0.00000000
  ---------------------------------------------------
  free energy    TOTEN  =       -92.07211407 eV

  energy without entropy =      -92.03543889  energy(sigma->0) =      -92.05988901


--------------------------------------------------------------------------------------------------------




--------------------------------------- Iteration      1(  16)  ---------------------------------------


    POTLOK:  cpu time    0.0167: real time    0.0167
    SETDIJ:  cpu time    0.0021: real time    0.0021
     EDDAV:  cpu time   10.7110: real time   10.7124
       DOS:  cpu time    0.0018: real time    0.0018
    CHARGE:  cpu time    0.3183: real time    0.3183
    MIXING:  cpu time    0.0011: real time    0.0011
    --------------------------------------------
      LOOP:  cpu time   11.0509: real time   11.0524

 eigenvalue-minimisations  : 12120
 total energy-change (2. order) : 0.3152426E-01  (-0.1732401E-01)
 number of electron     160.0000095 magnetization 
 augmentation part       50.0868081 magnetization 

 Broyden mixing:
  rms(total) = 0.92207E-01    rms(broyden)= 0.92194E-01
  rms(prec ) = 0.10504E+00
  weight for this iteration     100.00

 eigenvalues of (default mixing * dielectric matrix)
  average eigenvalue GAMMA=   0.8370
  2.4169  2.4169  1.2311  0.6583  0.6583  0.5168  0.3958  0.3005  0.3005  0.2341
  0.0775

 Free energy of the ion-electron system (eV)
  ---------------------------------------------------
  alpha Z        PSCENC =       303.52543553
  Ewald energy   TEWEN  =     98433.56053661
  -Hartree energ DENC   =   -110331.87048054
  -exchange      EXHF   =         0.00000000
  -V(xc)+E(xc)   XCENC  =        40.58127953
  PAW double counting   =     14202.63257642   -13787.70116819
  entropy T*S    EENTRO =        -0.03751259
  eigenvalues    EBANDS =      -646.42546617
  atomic energy  EATOM  =     11693.69420960
  Solvation  Ediel_sol  =         0.00000000
  ---------------------------------------------------
  free energy    TOTEN  =       -92.04058981 eV

  energy without entropy =      -92.00307721  energy(sigma->0) =      -92.02808561


--------------------------------------------------------------------------------------------------------




--------------------------------------- Iteration      1(  17)  ---------------------------------------


    POTLOK:  cpu time    0.0171: real time    0.0247
    SETDIJ:  cpu time    0.0023: real time    0.0023
     EDDAV:  cpu time   12.5186: real time   12.5201
       DOS:  cpu time    0.0017: real time    0.0016
    CHARGE:  cpu time    0.3176: real time    0.3177
    MIXING:  cpu time    0.0011: real time    0.0011
    --------------------------------------------
      LOOP:  cpu time   12.8584: real time   12.8675

 eigenvalue-minimisations  : 14400
 total energy-change (2. order) : 0.6047356E-02  (-0.4428514E-02)
 number of electron     160.0000096 magnetization 
 augmentation part       50.0830105 magnetization 

 Broyden mixing:
  rms(total) = 0.47184E-01    rms(broyden)= 0.47175E-01
  rms(prec ) = 0.50844E-01
  weight for this iteration     100.00

 eigenvalues of (default mixing * dielectric matrix)
  average eigenvalue GAMMA=   0.8251
  2.4426  2.4426  1.2527  0.7883  0.7883  0.4684  0.4684  0.3407  0.2987  0.2987
  0.2347  0.0775

 Free energy of the ion-electron system (eV)
  ---------------------------------------------------
  alpha Z        PSCENC =       303.52543553
  Ewald energy   TEWEN  =     98433.56053661
  -Hartree energ DENC   =   -110332.95265462
  -exchange      EXHF   =         0.00000000
  -V(xc)+E(xc)   XCENC  =        40.58837953
  PAW double counting   =     14188.77731506   -13773.78440723
  entropy T*S    EENTRO =        -0.04050753
  eigenvalues    EBANDS =      -645.40284939
  atomic energy  EATOM  =     11693.69420960
  Solvation  Ediel_sol  =         0.00000000
  ---------------------------------------------------
  free energy    TOTEN  =       -92.03454245 eV

  energy without entropy =      -91.99403492  energy(sigma->0) =      -92.02103994


--------------------------------------------------------------------------------------------------------




--------------------------------------- Iteration      1(  18)  ---------------------------------------


    POTLOK:  cpu time    0.0167: real time    0.0167
    SETDIJ:  cpu time    0.0023: real time    0.0023
     EDDAV:  cpu time   10.2487: real time   10.2500
       DOS:  cpu time    0.0017: real time    0.0017
    CHARGE:  cpu time    0.3194: real time    0.3194
    MIXING:  cpu time    0.0013: real time    0.0013
    --------------------------------------------
      LOOP:  cpu time   10.5901: real time   10.5914

 eigenvalue-minimisations  : 11616
 total energy-change (2. order) : 0.9316500E-03  (-0.7664910E-03)
 number of electron     160.0000096 magnetization 
 augmentation part       50.0846111 magnetization 

 Broyden mixing:
  rms(total) = 0.19179E-01    rms(broyden)= 0.19174E-01
  rms(prec ) = 0.21098E-01
  weight for this iteration     100.00

 eigenvalues of (default mixing * dielectric matrix)
  average eigenvalue GAMMA=   0.8255
  2.3374  2.3374  1.3533  0.8702  0.8702  0.6953  0.5944  0.4187  0.3454  0.2986
  0.2986  0.2345  0.0775

 Free energy of the ion-electron system (eV)
  ---------------------------------------------------
  alpha Z        PSCENC =       303.52543553
  Ewald energy   TEWEN  =     98433.56053661
  -Hartree energ DENC   =   -110333.28691275
  -exchange      EXHF   =         0.00000000
  -V(xc)+E(xc)   XCENC  =        40.59231091
  PAW double counting   =     14185.60571100   -13770.58938583
  entropy T*S    EENTRO =        -0.04056034
  eigenvalues    EBANDS =      -645.09495554
  atomic energy  EATOM  =     11693.69420960
  Solvation  Ediel_sol  =         0.00000000
  ---------------------------------------------------
  free energy    TOTEN  =       -92.03361080 eV

[...]
     80      -0.8363      1.17379
     81      -0.7724      0.64329
     82      -0.7280      0.33119
     83      -0.6659      0.04855
     84      -0.4942     -0.04546
     85      -0.4770     -0.03769
     86      -0.3512     -0.00494
     87       1.1544     -0.00000
     88       1.1723     -0.00000
     89       1.2668     -0.00000
     90       1.7523     -0.00000
     91       1.7686     -0.00000
     92       1.7814     -0.00000
     93       2.8436     -0.00000
     94       2.8654     -0.00000
     95       3.2692     -0.00000
     96       4.3539     -0.00000

 k-point    51 :      -0.4375    0.4375    0.0000
  band No.  band energies     occupation 
      1      -8.3174      2.00000
      2      -8.2894      2.00000
      3      -7.3191      2.00000
      4      -7.2555      2.00000
      5      -6.8442      2.00000
      6      -6.5847      2.00000
      7      -6.5207      2.00000
      8      -6.4625      2.00000
      9      -6.3662      2.00000
     10      -6.2727      2.00000
     11      -6.2171      2.00000
     12      -6.1562      2.00000
     13      -6.1516      2.00000
     14      -5.9679      2.00000
     15      -5.8033      2.00000
     16      -5.7194      2.00000
     17      -5.7044      2.00000
     18      -5.6795      2.00000
     19      -5.5425      2.00000
     20      -5.4817      2.00000
     21      -5.3525      2.00000
     22      -5.3096      2.00000
     23      -5.2735      2.00000
     24      -5.2154      2.00000
     25      -5.1685      2.00000
     26      -5.0940      2.00000
     27      -5.0793      2.00000
     28      -5.0409      2.00000
     29      -4.7790      2.00000
     30      -4.7291      2.00000
     31      -4.6739      2.00000
     32      -4.6110      2.00000
     33      -4.5651      2.00000
     34      -4.4734      2.00000
     35      -4.4400      2.00000
     36      -4.3250      2.00000
     37      -4.2287      2.00000
     38      -4.1527      2.00000
     39      -4.1216      2.00000
     40      -4.0934      2.00000
     41      -4.0508      2.00000
     42      -3.9329      2.00000
     43      -3.8317      2.00000
     44      -3.7330      2.00000
     45      -3.7151      2.00000
     46      -3.6835      2.00000
     47      -3.6422      2.00000
     48      -3.6112      2.00000
     49      -3.5737      2.00000
     50      -3.4652      2.00000
     51      -3.3749      2.00000
     52      -3.3131      2.00000
     53      -3.1767      2.00000
     54      -2.9942      2.00000
     55      -2.9434      2.00000
     56      -2.8849      2.00000
     57      -2.8661      2.00000
     58      -2.8275      2.00000
     59      -2.6951      2.00000
     60      -2.6028      2.00000
     61      -2.5372      2.00000
     62      -2.4850      2.00000
     63      -2.4032      2.00000
     64      -2.3481      2.00000
     65      -2.2273      2.00000
     66      -2.1913      2.00000
     67      -2.1289      2.00000
     68      -2.0395      2.00000
     69      -1.9720      2.00000
     70      -1.9096      2.00000
     71      -1.8768      2.00000
     72      -1.8034      2.00000
     73      -1.7068      2.00000
     74      -1.5726      2.00000
     75      -1.4603      2.00005
     76      -1.3591      2.00083
     77      -1.2932      2.00377
     78      -1.0908      2.06525
     79      -0.9743      1.97676
     80      -0.9030      1.66685
     81      -0.8673      1.42142
     82      -0.7675      0.60530
     83      -0.6909      0.13911
     84      -0.5934     -0.06628
     85      -0.4300     -0.02003
     86      -0.4093     -0.01443
     87       0.2032     -0.00000
     88       0.4917     -0.00000
     89       1.4432     -0.00000
     90       1.5133     -0.00000
     91       1.6068     -0.00000
     92       2.3511     -0.00000
     93       3.1425     -0.00000
     94       3.4321     -0.00000
     95       3.9311     -0.00000
     96       3.9897     -0.00000

 k-point    52 :      -0.4375    0.1250    0.0000
  band No.  band energies     occupation 
      1      -8.3141      2.00000
      2      -8.2924      2.00000
      3      -7.3162      2.00000
      4      -7.2594      2.00000
      5      -6.8434      2.00000
      6      -6.5823      2.00000
      7      -6.5165      2.00000
      8      -6.4601      2.00000
      9      -6.3692      2.00000
     10      -6.2732      2.00000
     11      -6.2326      2.00000
     12      -6.1534      2.00000
     13      -6.1433      2.00000
     14      -5.9705      2.00000
     15      -5.8007      2.00000
     16      -5.7162      2.00000
     17      -5.7056      2.00000
     18      -5.6814      2.00000
     19      -5.5514      2.00000
     20      -5.4805      2.00000
     21      -5.3502      2.00000
     22      -5.3041      2.00000
     23      -5.2833      2.00000
     24      -5.2060      2.00000
     25      -5.1726      2.00000
     26      -5.0927      2.00000
     27      -5.0804      2.00000
     28      -5.0258      2.00000
     29      -4.8122      2.00000
     30      -4.7241      2.00000
     31      -4.6707      2.00000
     32      -4.6101      2.00000
     33      -4.5611      2.00000
     34      -4.4665      2.00000
     35      -4.4332      2.00000
     36      -4.3182      2.00000
     37      -4.2460      2.00000
     38      -4.1538      2.00000
     39      -4.1140      2.00000
     40      -4.0983      2.00000
     41      -4.0347      2.00000
     42      -3.9367      2.00000
     43      -3.8364      2.00000
     44      -3.7511      2.00000
     45      -3.7069      2.00000
     46      -3.6751      2.00000
     47      -3.6414      2.00000
     48      -3.6056      2.00000
     49      -3.5816      2.00000
     50      -3.4934      2.00000
     51      -3.3709      2.00000
     52      -3.2893      2.00000
     53      -3.1440      2.00000
     54      -2.9944      2.00000
     55      -2.9506      2.00000
     56      -2.9035      2.00000
     57      -2.8877      2.00000
     58      -2.8256      2.00000
     59      -2.7009      2.00000
     60      -2.5966      2.00000
     61      -2.5324      2.00000
     62      -2.4849      2.00000
     63      -2.4110      2.00000
     64      -2.3287      2.00000
     65      -2.2210      2.00000
     66      -2.1763      2.00000
     67      -2.1171      2.00000
     68      -2.0590      2.00000
     69      -1.9918      2.00000
     70      -1.9248      2.00000
     71      -1.8732      2.00000
     72      -1.8037      2.00000
     73      -1.7117      2.00000
     74      -1.6064      2.00000
     75      -1.4449      2.00008
     76      -1.2803      2.00492
     77      -1.2619      2.00706
     78      -1.1635      2.03375
     79      -0.9931      2.01823
     80      -0.8994      1.64480
     81      -0.8573      1.34420
     82      -0.7890      0.77678
     83      -0.6457     -0.00344
     84      -0.6143     -0.05160
     85      -0.4501     -0.02678
     86      -0.3871     -0.00982
     87       0.2036     -0.00000
     88       0.4915     -0.00000
     89       1.4375     -0.00000
     90       1.5468     -0.00000
     91       1.5780     -0.00000
     92       2.3465     -0.00000
     93       3.1588     -0.00000
     94       3.4185     -0.00000
     95       3.9385     -0.00000
     96       3.9842     -0.00000


--------------------------------------------------------------------------------------------------------


 soft charge-density along one line, spin component           1
         0         1         2         3         4         5         6         7         8         9
 total charge-density along one line
 
 pseudopotential strength for first ion, spin component:           1
 -8.314   0.002   0.000  -0.014  -0.000  -8.523   0.002   0.000
  0.002  -8.241  -0.001   0.000  -0.012   0.002  -8.452  -0.001
  0.000  -0.001  -8.240   0.001  -0.000   0.000  -0.001  -8.451
 -0.014   0.000   0.001  -8.241   0.002  -0.014   0.000   0.001
 -0.000  -0.012  -0.000   0.002  -8.314  -0.000  -0.012  -0.000
 -8.523   0.002   0.000  -0.014  -0.000  -8.719   0.002   0.000
  0.002  -8.452  -0.001   0.000  -0.012   0.002  -8.648  -0.001
  0.000  -0.001  -8.451   0.001  -0.000   0.000  -0.001  -8.647
 -0.014   0.000   0.001  -8.452   0.002  -0.014   0.000   0.001
 -0.000  -0.012  -0.000   0.002  -8.523  -0.000  -0.012  -0.000
 -0.000   0.001  -0.020  -0.001   0.000  -0.000   0.001  -0.020
 -0.000   0.001  -0.031  -0.002   0.000  -0.000   0.001  -0.031
 -0.000  -0.007  -0.000  -0.000   0.000  -0.000  -0.007  -0.000
 -0.000   0.000  -0.014  -0.000   0.000  -0.000   0.000  -0.013
  0.000  -0.000   0.000  -0.007  -0.000   0.000  -0.000   0.000
 -0.000  -0.006  -0.000  -0.000   0.000  -0.000  -0.006  -0.000
 -0.000   0.000  -0.015  -0.000   0.000  -0.000   0.000  -0.015
  0.000  -0.000   0.000  -0.006  -0.000   0.000  -0.000   0.000
 total augmentation occupancy for first ion, spin component:           1
  2.642   0.017   0.007  -0.349   0.004  -1.867  -0.011  -0.004   0.122  -0.003   0.003   0.000   0.000  -0.001  -0.041  -0.000
  0.017   3.359  -0.003   0.005  -0.330  -0.011  -1.858   0.002  -0.002   0.116  -0.005   0.000  -0.236  -0.000   0.001   0.008
  0.007  -0.003   3.626   0.006  -0.004  -0.004   0.003  -2.346  -0.004   0.002   0.662  -0.060  -0.001  -0.237   0.002  -0.000
 -0.349   0.005   0.006   3.354   0.017   0.128  -0.002  -0.004  -1.855  -0.011   0.009  -0.000   0.001   0.000  -0.237  -0.000
  0.004  -0.330  -0.004   0.017   2.646  -0.003   0.110   0.002  -0.011  -1.870  -0.002  -0.000  -0.041   0.000   0.000   0.003
 -1.867  -0.011  -0.004   0.128  -0.003   2.527   0.008   0.003   0.025   0.003  -0.002  -0.000  -0.000   0.000   0.043  -0.000
 -0.011  -1.858   0.003  -0.002   0.110   0.008   1.952  -0.002   0.001   0.034   0.003   0.000   0.229   0.000  -0.001  -0.016
 -0.004   0.002  -2.346  -0.004   0.002   0.003  -0.002   2.621   0.004  -0.002  -0.696   0.088   0.001   0.327  -0.001  -0.000
  0.122  -0.002  -0.004  -1.855  -0.011   0.025   0.001   0.004   1.950   0.008  -0.005  -0.001  -0.001  -0.000   0.230  -0.000
 -0.003   0.116   0.002  -0.011  -1.870   0.003   0.034  -0.002   0.008   2.530   0.001   0.000   0.043  -0.000  -0.000  -0.003
  0.003  -0.005   0.662   0.009  -0.002  -0.002   0.003  -0.696  -0.005   0.001   2.089  -0.341  -0.000   0.173   0.000   0.000
  0.000   0.000  -0.060  -0.000  -0.000  -0.000   0.000   0.088  -0.001   0.000  -0.341   0.073  -0.000  -0.050   0.000  -0.000
  0.000  -0.236  -0.001   0.001  -0.041  -0.000   0.229   0.001  -0.001   0.043  -0.000  -0.000   0.265   0.000   0.000  -0.014
 -0.001  -0.000  -0.237   0.000   0.000   0.000   0.000   0.327  -0.000  -0.000   0.173  -0.050   0.000   0.146  -0.001  -0.000
 -0.041   0.001   0.002  -0.237   0.000   0.043  -0.001  -0.001   0.230  -0.000   0.000   0.000   0.000  -0.001   0.265  -0.000
 -0.000   0.008  -0.000  -0.000   0.003  -0.000  -0.016  -0.000  -0.000  -0.003   0.000  -0.000  -0.014  -0.000  -0.000   0.001
  0.000   0.000  -0.003  -0.000  -0.000  -0.000   0.000  -0.019  -0.000   0.000  -0.018   0.004  -0.000  -0.009   0.000   0.000
  0.003  -0.000   0.000   0.008  -0.000  -0.003  -0.000   0.000  -0.016  -0.000  -0.000   0.000  -0.000   0.000  -0.014   0.000


------------------------ aborting loop because EDIFF is reached ----------------------------------------



 DIPCOR: dipole corrections for dipol
 direction  3 min pos   288,
 dipolmoment           0.000000      0.000000     -0.019619 electrons x Angstroem
 Tr[quadrupol]      -958.898632

 energy correction for charged system         0.000000 eV
 dipol+quadrupol energy correction            0.000042 eV
 added-field ion interaction          0.000000 eV  (added to PSCEN)

 
  *************** adding dipol energy to TOTEN NOW **************** 
    CHARGE:  cpu time    0.3165: real time    0.3165
    FORLOC:  cpu time    0.0023: real time    0.0023
    FORNL :  cpu time    4.5447: real time    4.5451
    STRESS:  cpu time    7.6078: real time    7.6085
    FORCOR:  cpu time    0.0196: real time    0.0200
    FORHAR:  cpu time    0.0059: real time    0.0060
    MIXING:  cpu time    0.0016: real time    0.0016
    OFIELD:  cpu time    0.0000: real time    0.0000

  FORCE on cell =-STRESS in cart. coord.  units (eV):
  Direction    XX          YY          ZZ          XY          YZ          ZX
  --------------------------------------------------------------------------------------
  Alpha Z   303.52544   303.52544   303.52544
  Ewald  107325.74714107325.74110************    -0.00523    -0.00000    -0.00000
  Hartree109639.46137109639.47786************     0.01429    -0.03800     0.06581
  E(xc)    -709.69064  -709.69511  -714.43420    -0.00379     0.00811    -0.01405
  Local  ************************222308.92884    -0.08423     0.17565    -0.30434
  n-local    62.63942    55.74138    42.20410     1.99127    -0.40508    -0.27321
  augment   834.47543   834.51393   862.15674     0.03177    -0.06100     0.10545
  Kinetic  2284.62229  2279.85477  2353.04897     1.46861    -0.59325    -0.05010
  Fock        0.00000     0.00000     0.00000     0.00000     0.00000     0.00000
  -------------------------------------------------------------------------------------
  Total     -11.25423   -11.22934    -0.44474     0.02156    -0.02580     0.04469
  in kB     -21.87922   -21.83083    -0.86462     0.04191    -0.05017     0.08689
  external pressure =      -14.86 kB  Pullay stress =        0.00 kB


 VOLUME and BASIS-vectors are now :
 -----------------------------------------------------------------------------
  energy-cutoff  :      350.00
  volume of cell :      824.13
      direct lattice vectors                 reciprocal lattice vectors
     5.557859300  0.000000000  0.000000000     0.179925390 -0.103879972  0.000000000
     2.778929650  4.813247345  0.000000000     0.000000000  0.207759944  0.000000000
     0.000000000  0.000000000 30.806959674     0.000000000  0.000000000  0.032460198

  length of vectors
     5.557859300  5.557859300 30.806959674     0.207759944  0.207759944  0.032460198


 FORCES acting on ions
    electron-ion (+dipol)            ewald-force                    non-local-force                 convergence-correction
 -----------------------------------------------------------------------------------------------
   0.179E-01 -.103E-01 0.257E+04   -.872E-12 -.468E-12 -.256E+04   0.210E-01 -.121E-01 -.153E+00   0.641E-03 -.370E-03 -.102E+00
   -.224E-01 -.496E-01 0.285E+04   -.951E-12 -.565E-12 -.285E+04   -.131E-01 0.680E-01 -.754E+00   -.817E-03 -.501E-02 -.116E+00
   -.256E-01 0.148E-01 0.285E+04   -.945E-12 -.586E-12 -.285E+04   0.454E-01 -.262E-01 -.732E+00   -.387E-02 0.224E-02 -.115E+00
   0.317E-01 0.442E-01 0.285E+04   -.945E-12 -.586E-12 -.285E+04   -.654E-01 -.226E-01 -.754E+00   0.393E-02 0.321E-02 -.116E+00
   0.471E+01 0.301E+01 0.100E+04   -.489E+01 -.310E+01 -.100E+04   0.371E-01 0.846E-02 -.268E+00   0.212E-02 0.375E-03 -.701E-01
   -.470E+01 0.271E+01 0.100E+04   0.489E+01 -.282E+01 -.100E+04   -.397E-01 0.229E-01 -.166E+00   -.213E-02 0.123E-02 -.713E-01
   -.251E+00 -.558E+01 0.100E+04   0.242E+00 0.578E+01 -.100E+04   0.112E-01 -.363E-01 -.268E+00   0.737E-03 -.203E-02 -.701E-01
   0.252E+00 -.146E+00 0.997E+03   -.242E+00 0.140E+00 -.996E+03   -.840E-02 0.485E-02 -.308E+00   -.764E-03 0.441E-03 -.735E-01
   0.467E+01 0.299E+01 -.897E+03   -.479E+01 -.305E+01 0.897E+03   -.172E-01 -.265E-01 0.391E+00   0.295E-02 0.568E-02 0.546E-01
   -.468E+01 0.270E+01 -.898E+03   0.479E+01 -.277E+01 0.897E+03   0.236E-01 -.137E-01 0.507E+00   -.293E-02 0.169E-02 0.558E-01
   -.256E+00 -.554E+01 -.897E+03   0.247E+00 0.568E+01 0.897E+03   0.144E-01 0.282E-01 0.391E+00   -.344E-02 -.539E-02 0.546E-01
   0.253E+00 -.146E+00 -.902E+03   -.247E+00 0.142E+00 0.902E+03   -.165E-01 0.951E-02 0.326E+00   0.340E-02 -.196E-02 0.502E-01
   -.464E-01 0.268E-01 -.281E+04   0.987E-12 0.531E-12 0.281E+04   0.580E-01 -.335E-01 0.994E+00   -.169E-03 0.974E-04 0.593E-01
   0.416E-01 0.406E-01 -.281E+04   0.908E-12 0.556E-12 0.281E+04   -.447E-01 -.141E-01 0.995E+00   0.218E-03 -.648E-02 0.642E-01
   -.144E-01 -.563E-01 -.281E+04   0.973E-12 0.523E-12 0.281E+04   -.101E-01 0.457E-01 0.995E+00   0.572E-02 0.305E-02 0.642E-01
   0.850E-02 -.491E-02 -.309E+04   0.999E-12 0.604E-12 0.309E+04   0.142E-01 -.818E-02 0.345E+00   -.652E-02 0.376E-02 0.731E-01
 -----------------------------------------------------------------------------------------------
   -.904E-02 0.522E-02 -.128E+01   0.197E-13 0.216E-13 -.273E-11   0.982E-02 -.567E-02 0.154E+01   -.928E-03 0.536E-03 -.259E+00
 
 
 POSITION                                       TOTAL-FORCE (eV/Angst)
 -----------------------------------------------------------------------------------
      0.00000      0.00000     12.00000         0.039515     -0.022814      1.070971
      2.77893      0.00000     12.00000        -0.036341      0.013350     -0.168372
      1.38946      2.40662     12.00000         0.015917     -0.009190     -0.152957
      4.16839      2.40662     12.00000        -0.029732      0.024797     -0.168372
      1.38946      0.80221     14.31554        -0.141385     -0.084615     -0.223071
      4.16839      0.80221     14.31554         0.145960     -0.084270     -0.493783
      2.77893      3.20883     14.31554         0.002586      0.164751     -0.223071
      5.55786      3.20883     14.31554         0.001459     -0.000842      0.116816
      5.55786      1.60442     16.61120        -0.135250     -0.079948     -0.106207
      2.77893      1.60442     16.61120         0.136032     -0.078538     -0.320301
      6.94732      4.01104     16.61120         0.001612      0.157104     -0.106207
      4.16839      4.01104     16.61120        -0.006465      0.003732      0.153582
      0.00000      0.00000     18.94198         0.011456     -0.006614     -0.142662
      2.77893      0.00000     18.94198        -0.002811      0.019983     -0.148048
      4.16839      2.40662     18.94198        -0.018711     -0.007557     -0.148048
      1.38946      2.40662     18.94198         0.016159     -0.009329      1.059729
 -----------------------------------------------------------------------------------
    total drift:                               -0.000150      0.000085     -0.002096


--------------------------------------------------------------------------------------------------------



  FREE ENERGIE OF THE ION-ELECTRON SYSTEM (eV)
  ---------------------------------------------------
  free  energy   TOTEN  =       -92.03333216 eV

  energy  without entropy=      -91.99315771  energy(sigma->0) =      -92.01994068
 


--------------------------------------------------------------------------------------------------------


    POTLOK:  cpu time    0.0195: real time    0.0195


--------------------------------------------------------------------------------------------------------


     LOOP+:  cpu time  278.1269: real time  278.2182
    4ORBIT:  cpu time    0.0000: real time    0.0000

 total amount of memory used by VASP MPI-rank0   362189. kBytes
=======================================================================

   base      :      30000. kBytes
   nonl-proj :     280273. kBytes
   fftplans  :       2015. kBytes
   grid      :       7641. kBytes
   one-center:        248. kBytes
   wavefun   :      42012. kBytes
 
  
  
 General timing and accounting informations for this job:
 ========================================================
  
                  Total CPU time used (sec):      283.542
                            User time (sec):      282.598
                          System time (sec):        0.944
                         Elapsed time (sec):      283.772
  
                   Maximum memory used (kb):      404496.
                   Average memory used (kb):           0.
  
                          Minor page faults:        78805
                          Major page faults:            0
                 Voluntary context switches:          689
