<?xml version="1.0" encoding="ISO-8859-1"?>
<modeling>
 <generator>
  <i name="program" type="string">vasp </i>
  <i name="version" type="string">5.4.4.18Apr17-6-g9f103f2a35  </i>
  <i name="subversion" type="string">(build Apr 28 2017 10:53:45) complex            parallel </i>
  <i name="platform" type="string">LinuxIFC </i>
  <i name="date" type="string">2020 02 17 </i>
  <i name="time" type="string">09:19:49 </i>
 </generator>
 <incar>
  <i type="string" name="PREC">normal</i>
  <i type="int" name="ISPIN">     1</i>
  <i type="int" name="IBRION">     2</i>
  <i name="EDIFF">      0.00001000</i>
  <i name="EDIFFG">     -0.05000000</i>
  <i type="int" name="NSW">     0</i>
  <i name="ENCUT">    350.00000000</i>
  <i type="logical" name="LWAVE"> F  </i>
  <i type="logical" name="LCHARG"> F  </i>
  <v type="int" name="KPOINT_BSE">    -1     0     0     0</v>
  <i type="string" name="GGA"> PE</i>
  <i type="int" name="IDIPOL">     3</i>
 </incar>
 <structure name="primitive_cell" >
  <crystal>
   <varray name="basis" >
    <v>       5.55785930       0.00000000       0.00000000 </v>
    <v>       2.77892965       4.81324734       0.00000000 </v>
    <v>       0.00000000       0.00000000      30.80695967 </v>
   </varray>
   <i name="volume">    824.12780743 </i>
   <varray name="rec_basis" >
    <v>       0.17992539      -0.10387997       0.00000000 </v>
    <v>       0.00000000       0.20775994       0.00000000 </v>
    <v>       0.00000000       0.00000000       0.03246020 </v>
   </varray>
  </crystal>
  <varray name="positions" >
   <v>       0.00000000       0.00000000       0.38952237 </v>
   <v>       0.00000000      -0.50000000       0.38952237 </v>
   <v>      -0.50000000      -0.50000000       0.38952237 </v>
   <v>      -0.50000000       0.00000000       0.38952237 </v>
   <v>       0.16666667       0.16666667       0.46468540 </v>
   <v>       0.16666667      -0.33333333       0.46468540 </v>
   <v>      -0.33333333       0.16666667       0.46468540 </v>
   <v>      -0.33333333      -0.33333333       0.46468540 </v>
   <v>      -0.16666667      -0.16666667      -0.46079704 </v>
   <v>      -0.16666667       0.33333333      -0.46079704 </v>
   <v>       0.33333333      -0.16666667      -0.46079704 </v>
   <v>       0.33333333       0.33333333      -0.46079704 </v>
   <v>       0.00000000       0.00000000      -0.38513957 </v>
   <v>      -0.50000000       0.00000000      -0.38513957 </v>
   <v>       0.00000000      -0.50000000      -0.38513957 </v>
   <v>      -0.50000000      -0.50000000      -0.38513957 </v>
  </varray>
 </structure>
 <varray name="primitive_index" >
  <v type="int" >        1 </v>
  <v type="int" >        3 </v>
  <v type="int" >        4 </v>
  <v type="int" >        2 </v>
  <v type="int" >        5 </v>
  <v type="int" >        7 </v>
  <v type="int" >        6 </v>
  <v type="int" >        8 </v>
  <v type="int" >       10 </v>
  <v type="int" >       16 </v>
  <v type="int" >       11 </v>
  <v type="int" >        9 </v>
  <v type="int" >       12 </v>
  <v type="int" >       13 </v>
  <v type="int" >       14 </v>
  <v type="int" >       15 </v>
 </varray>
 <kpoints>
  <generation param="Monkhorst-Pack">
   <v type="int" name="divisions">       8        8        1 </v>
   <v name="usershift">      0.00000000       0.00000000       0.00000000 </v>
   <v name="genvec1">      0.12500000       0.00000000       0.00000000 </v>
   <v name="genvec2">      0.00000000       0.12500000       0.00000000 </v>
   <v name="genvec3">      0.00000000       0.00000000       1.00000000 </v>
   <v name="shift">      0.50000000       0.50000000       0.00000000 </v>
  </generation>
  <varray name="kpointlist" >
   <v>       0.06250000       0.06250000       0.00000000 </v>
   <v>       0.00000000       0.06250000       0.00000000 </v>
   <v>       0.18750000       0.06250000       0.00000000 </v>
   <v>       0.12500000       0.18750000       0.00000000 </v>
   <v>      -0.06250000       0.12500000       0.00000000 </v>
   <v>       0.31250000       0.06250000       0.00000000 </v>
   <v>       0.25000000       0.31250000       0.00000000 </v>
   <v>      -0.06250000       0.25000000       0.00000000 </v>
   <v>       0.43750000       0.06250000       0.00000000 </v>
   <v>       0.37500000       0.43750000       0.00000000 </v>
   <v>      -0.06250000       0.37500000       0.00000000 </v>
   <v>      -0.43750000       0.06250000       0.00000000 </v>
   <v>       0.50000000      -0.43750000       0.00000000 </v>
   <v>      -0.06250000       0.50000000       0.00000000 </v>
   <v>      -0.31250000       0.06250000       0.00000000 </v>
   <v>      -0.37500000      -0.31250000       0.00000000 </v>
   <v>      -0.06250000      -0.37500000       0.00000000 </v>
   <v>      -0.18750000       0.06250000       0.00000000 </v>
   <v>      -0.25000000      -0.18750000       0.00000000 </v>
   <v>      -0.06250000      -0.25000000       0.00000000 </v>
   <v>      -0.06250000       0.06250000       0.00000000 </v>
   <v>      -0.12500000      -0.06250000       0.00000000 </v>
   <v>       0.18750000       0.18750000       0.00000000 </v>
   <v>       0.00000000       0.18750000       0.00000000 </v>
   <v>       0.31250000       0.18750000       0.00000000 </v>
   <v>       0.12500000       0.31250000       0.00000000 </v>
   <v>      -0.18750000       0.12500000       0.00000000 </v>
   <v>       0.43750000       0.18750000       0.00000000 </v>
   <v>       0.25000000       0.43750000       0.00000000 </v>
   <v>      -0.18750000       0.25000000       0.00000000 </v>
   <v>      -0.43750000       0.18750000       0.00000000 </v>
   <v>       0.37500000      -0.43750000       0.00000000 </v>
   <v>      -0.18750000       0.37500000       0.00000000 </v>
   <v>      -0.31250000       0.18750000       0.00000000 </v>
   <v>       0.50000000      -0.31250000       0.00000000 </v>
   <v>      -0.18750000       0.50000000       0.00000000 </v>
   <v>      -0.18750000       0.18750000       0.00000000 </v>
   <v>      -0.37500000      -0.18750000       0.00000000 </v>
   <v>       0.31250000       0.31250000       0.00000000 </v>
   <v>       0.00000000       0.31250000       0.00000000 </v>
   <v>       0.43750000       0.31250000       0.00000000 </v>
   <v>       0.12500000       0.43750000       0.00000000 </v>
   <v>      -0.31250000       0.12500000       0.00000000 </v>
   <v>      -0.43750000       0.31250000       0.00000000 </v>
   <v>       0.25000000      -0.43750000       0.00000000 </v>
   <v>      -0.31250000       0.25000000       0.00000000 </v>
   <v>      -0.31250000       0.31250000       0.00000000 </v>
   <v>       0.37500000      -0.31250000       0.00000000 </v>
   <v>       0.43750000       0.43750000       0.00000000 </v>
   <v>       0.00000000       0.43750000       0.00000000 </v>
   <v>      -0.43750000       0.43750000       0.00000000 </v>
   <v>       0.12500000      -0.43750000       0.00000000 </v>
  </varray>
  <varray name="weights" >
   <v>       0.02083333 </v>
   <v>       0.01041667 </v>
   <v>       0.02083333 </v>
   <v>       0.02083333 </v>
   <v>       0.02083333 </v>
   <v>       0.02083333 </v>
   <v>       0.02083333 </v>
   <v>       0.02083333 </v>
   <v>       0.02083333 </v>
   <v>       0.02083333 </v>
   <v>       0.02083333 </v>
   <v>       0.02083333 </v>
   <v>       0.02083333 </v>
   <v>       0.02083333 </v>
   <v>       0.02083333 </v>
   <v>       0.02083333 </v>
   <v>       0.02083333 </v>
   <v>       0.02083333 </v>
   <v>       0.02083333 </v>
   <v>       0.02083333 </v>
   <v>       0.02083333 </v>
   <v>       0.01041667 </v>
   <v>       0.02083333 </v>
   <v>       0.01041667 </v>
   <v>       0.02083333 </v>
   <v>       0.02083333 </v>
   <v>       0.02083333 </v>
   <v>       0.02083333 </v>
   <v>       0.02083333 </v>
   <v>       0.02083333 </v>
   <v>       0.02083333 </v>
   <v>       0.02083333 </v>
   <v>       0.02083333 </v>
   <v>       0.02083333 </v>
   <v>       0.02083333 </v>
   <v>       0.02083333 </v>
   <v>       0.02083333 </v>
   <v>       0.01041667 </v>
   <v>       0.02083333 </v>
   <v>       0.01041667 </v>
   <v>       0.02083333 </v>
   <v>       0.02083333 </v>
   <v>       0.02083333 </v>
   <v>       0.02083333 </v>
   <v>       0.02083333 </v>
   <v>       0.02083333 </v>
   <v>       0.02083333 </v>
   <v>       0.01041667 </v>
   <v>       0.02083333 </v>
   <v>       0.01041667 </v>
   <v>       0.02083333 </v>
   <v>       0.01041667 </v>
  </varray>
 </kpoints>
 <parameters>
  <separator name="general" >
   <i type="string" name="SYSTEM">unknown system</i>
   <i type="logical" name="LCOMPAT"> F  </i>
  </separator>
  <separator name="electronic" >
   <i type="string" name="PREC">normal</i>
   <i name="ENMAX">    350.00000000</i>
   <i name="ENAUG">    358.96600000</i>
   <i name="EDIFF">      0.00001000</i>
   <i type="int" name="IALGO">    38</i>
   <i type="int" name="IWAVPR">    10</i>
   <i type="int" name="NBANDS">    96</i>
   <i name="NELECT">    160.00000000</i>
   <i type="int" name="TURBO">     0</i>
   <i type="int" name="IRESTART">     0</i>
   <i type="int" name="NREBOOT">     0</i>
   <i type="int" name="NMIN">     0</i>
   <i name="EREF">      0.00000000</i>
   <separator name="electronic smearing" >
    <i type="int" name="ISMEAR">     1</i>
    <i name="SIGMA">      0.20000000</i>
    <i name="KSPACING">      0.50000000</i>
    <i type="logical" name="KGAMMA"> T  </i>
   </separator>
   <separator name="electronic projectors" >
    <i type="logical" name="LREAL"> F  </i>
    <v name="ROPT">      0.00000000      0.00000000      0.00000000</v>
    <i type="int" name="LMAXPAW">  -100</i>
    <i type="int" name="LMAXMIX">     2</i>
    <i type="logical" name="NLSPLINE"> F  </i>
   </separator>
   <separator name="electronic startup" >
    <i type="int" name="ISTART">     0</i>
    <i type="int" name="ICHARG">     2</i>
    <i type="int" name="INIWAV">     1</i>
   </separator>
   <separator name="electronic spin" >
    <i type="int" name="ISPIN">     1</i>
    <i type="logical" name="LNONCOLLINEAR"> F  </i>
    <v name="MAGMOM">      1.00000000      1.00000000      1.00000000      1.00000000      1.00000000      1.00000000      1.00000000      1.00000000      1.00000000      1.00000000      1.00000000      1.00000000      1.00000000      1.00000000      1.00000000      1.00000000</v>
    <i name="NUPDOWN">     -1.00000000</i>
    <i type="logical" name="LSORBIT"> F  </i>
    <v name="SAXIS">      0.00000000      0.00000000      1.00000000</v>
    <i type="logical" name="LSPIRAL"> F  </i>
    <v name="QSPIRAL">      0.00000000      0.00000000      0.00000000</v>
    <i type="logical" name="LZEROZ"> F  </i>
   </separator>
   <separator name="electronic exchange-correlation" >
    <i type="logical" name="LASPH"> F  </i>
    <i type="logical" name="LMETAGGA"> F  </i>
   </separator>
   <separator name="electronic convergence" >
    <i type="int" name="NELM">    60</i>
    <i type="int" name="NELMDL">    -5</i>
    <i type="int" name="NELMIN">     2</i>
    <i name="ENINI">    350.00000000</i>
    <separator name="electronic convergence detail" >
     <i type="logical" name="LDIAG"> T  </i>
     <i type="logical" name="LSUBROT"> F  </i>
     <i name="WEIMIN">      0.00000000</i>
     <i name="EBREAK">      0.00000003</i>
     <i name="DEPER">      0.30000000</i>
     <i type="int" name="NRMM">     4</i>
     <i name="TIME">      0.40000000</i>
    </separator>
   </separator>
   <separator name="electronic mixer" >
    <i name="AMIX">      0.40000000</i>
    <i name="BMIX">      1.00000000</i>
    <i name="AMIN">      0.10000000</i>
    <i name="AMIX_MAG">      1.60000000</i>
    <i name="BMIX_MAG">      1.00000000</i>
    <separator name="electronic mixer details" >
     <i type="int" name="IMIX">     4</i>
     <i type="logical" name="MIXFIRST"> F  </i>
     <i type="int" name="MAXMIX">   -45</i>
     <i name="WC">    100.00000000</i>
     <i type="int" name="INIMIX">     1</i>
     <i type="int" name="MIXPRE">     1</i>
     <i type="int" name="MREMOVE">     5</i>
    </separator>
   </separator>
   <separator name="electronic dipolcorrection" >
    <i type="logical" name="LDIPOL"> F  </i>
    <i type="logical" name="LMONO"> F  </i>
    <i type="int" name="IDIPOL">     3</i>
    <i name="EPSILON">      1.00000000</i>
    <v name="DIPOL">   -100.00000000   -100.00000000   -100.00000000</v>
    <i name="EFIELD">      0.00000000</i>
   </separator>
  </separator>
  <separator name="grids" >
   <i type="int" name="NGX">    28</i>
   <i type="int" name="NGY">    28</i>
   <i type="int" name="NGZ">   144</i>
   <i type="int" name="NGXF">    56</i>
   <i type="int" name="NGYF">    56</i>
   <i type="int" name="NGZF">   288</i>
   <i type="logical" name="ADDGRID"> F  </i>
  </separator>
  <separator name="ionic" >
   <i type="int" name="NSW">     0</i>
   <i type="int" name="IBRION">    -1</i>
   <i type="int" name="MDALGO">     0</i>
   <i type="int" name="ISIF">     2</i>
   <i name="PSTRESS">      0.00000000</i>
   <i name="EDIFFG">     -0.05000000</i>
   <i type="int" name="NFREE">     1</i>
   <i name="POTIM">      0.50000000</i>
   <i name="SMASS">     -3.00000000</i>
   <i name="SCALEE">      1.00000000</i>
  </separator>
  <separator name="ionic md" >
   <i name="TEBEG">      0.00010000</i>
   <i name="TEEND">      0.00010000</i>
   <i type="int" name="NBLOCK">     1</i>
   <i type="int" name="KBLOCK">     1</i>
   <i type="int" name="NPACO">   256</i>
   <i name="APACO">     16.00000000</i>
  </separator>
  <separator name="symmetry" >
   <i type="int" name="ISYM">     2</i>
   <i name="SYMPREC">      0.00001000</i>
  </separator>
  <separator name="dos" >
   <i type="int" name="LORBIT">     0</i>
   <v name="RWIGS">     -1.00000000     -1.00000000     -1.00000000</v>
   <i type="int" name="NEDOS">   301</i>
   <i name="EMIN">     10.00000000</i>
   <i name="EMAX">    -10.00000000</i>
   <i name="EFERMI">      0.00000000</i>
  </separator>
  <separator name="writing" >
   <i type="int" name="NWRITE">     2</i>
   <i type="logical" name="LWAVE"> F  </i>
   <i type="logical" name="LDOWNSAMPLE"> F  </i>
   <i type="logical" name="LCHARG"> F  </i>
   <i type="logical" name="LPARD"> F  </i>
   <i type="logical" name="LVTOT"> F  </i>
   <i type="logical" name="LVHAR"> F  </i>
   <i type="logical" name="LELF"> F  </i>
   <i type="logical" name="LOPTICS"> F  </i>
   <v name="STM">      0.00000000      0.00000000      0.00000000      0.00000000      0.00000000      0.00000000      0.00000000</v>
  </separator>
  <separator name="performance" >
   <i type="int" name="NPAR">    24</i>
   <i type="int" name="NSIM">     4</i>
   <i type="int" name="NBLK">    -1</i>
   <i type="logical" name="LPLANE"> T  </i>
   <i type="logical" name="LSCALAPACK"> T  </i>
   <i type="logical" name="LSCAAWARE"> F  </i>
   <i type="logical" name="LSCALU"> F  </i>
   <i type="logical" name="LASYNC"> F  </i>
   <i type="logical" name="LORBITALREAL"> F  </i>
  </separator>
  <separator name="miscellaneous" >
   <i type="int" name="IDIOT">     3</i>
   <i type="int" name="ISPECIAL">     0</i>
   <i type="logical" name="LMUSIC"> F  </i>
   <v name="POMASS">    196.96600000    195.08000000    192.22000000</v>
   <v name="DARWINR">      0.00000000      0.00000000      0.00000000</v>
   <v name="DARWINV">      1.00000000      1.00000000      1.00000000</v>
   <i type="logical" name="LCORR"> T  </i>
  </separator>
  <i type="logical" name="GGA_COMPAT"> T  </i>
  <i type="logical" name="LBERRY"> F  </i>
  <i type="int" name="ICORELEVEL">     0</i>
  <i type="logical" name="LDAU"> F  </i>
  <i type="int" name="I_CONSTRAINED_M">     0</i>
  <separator name="electronic exchange-correlation" >
   <i type="string" name="GGA">PE</i>
   <i type="int" name="VOSKOWN">     0</i>
   <i type="logical" name="LHFCALC"> F  </i>
   <i type="string" name="PRECFOCK"></i>
   <i type="logical" name="LSYMGRAD"> F  </i>
   <i type="logical" name="LHFONE"> F  </i>
   <i type="logical" name="LRHFCALC"> F  </i>
   <i type="logical" name="LTHOMAS"> F  </i>
   <i type="logical" name="LMODELHF"> F  </i>
   <i name="ENCUT4O">     -1.00000000</i>
   <i type="int" name="EXXOEP">     0</i>
   <i type="int" name="FOURORBIT">     0</i>
   <i name="AEXX">      0.00000000</i>
   <i name="HFALPHA">      0.00000000</i>
   <i name="MCALPHA">      0.00000000</i>
   <i name="ALDAX">      1.00000000</i>
   <i name="AGGAX">      1.00000000</i>
   <i name="ALDAC">      1.00000000</i>
   <i name="AGGAC">      1.00000000</i>
   <i type="int" name="NKREDX">     1</i>
   <i type="int" name="NKREDY">     1</i>
   <i type="int" name="NKREDZ">     1</i>
   <i type="logical" name="SHIFTRED"> F  </i>
   <i type="logical" name="ODDONLY"> F  </i>
   <i type="logical" name="EVENONLY"> F  </i>
   <i type="int" name="LMAXFOCK">     0</i>
   <i type="int" name="NMAXFOCKAE">     0</i>
   <i type="logical" name="LFOCKAEDFT"> F  </i>
   <i name="HFSCREEN">      0.00000000</i>
   <i name="HFSCREENC">      0.00000000</i>
   <i type="int" name="NBANDSGWLOW">     0</i>
  </separator>
  <separator name="vdW DFT" >
   <i type="logical" name="LUSE_VDW"> F  </i>
   <i name="Zab_VDW">     -0.84910000</i>
   <i name="PARAM1">      0.12340000</i>
   <i name="PARAM2">      1.00000000</i>
   <i name="PARAM3">      0.00000000</i>
  </separator>
  <separator name="model GW" >
   <i type="int" name="MODEL_GW">     0</i>
   <i name="MODEL_EPS0">     30.90479278</i>
   <i name="MODEL_ALPHA">      1.00000000</i>
  </separator>
  <separator name="linear response parameters" >
   <i type="logical" name="LEPSILON"> F  </i>
   <i type="logical" name="LRPA"> F  </i>
   <i type="logical" name="LNABLA"> F  </i>
   <i type="logical" name="LVEL"> F  </i>
   <i type="int" name="KINTER">     0</i>
   <i name="CSHIFT">      0.10000000</i>
   <i name="OMEGAMAX">     -1.00000000</i>
   <i name="DEG_THRESHOLD">      0.00200000</i>
   <i name="RTIME">     -0.10000000</i>
   <i name="WPLASMAI">      0.00000000</i>
   <v name="DFIELD">      0.00000000      0.00000000      0.00000000</v>
   <v name="WPLASMA">      0.00000000      0.00000000      0.00000000      0.00000000      0.00000000      0.00000000      0.00000000      0.00000000      0.00000000</v>
  </separator>
  <separator name="orbital magnetization" >
   <i type="logical" name="NUCIND"> F  </i>
   <v name="MAGPOS">      0.00000000      0.00000000      0.00000000</v>
   <i type="logical" name="LNICSALL"> T  </i>
   <i type="logical" name="ORBITALMAG"> F  </i>
   <i type="logical" name="LMAGBLOCH"> F  </i>
   <i type="logical" name="LCHIMAG"> F  </i>
   <i type="logical" name="LGAUGE"> T  </i>
   <i type="int" name="MAGATOM">     0</i>
   <v name="MAGDIPOL">      0.00000000      0.00000000      0.00000000</v>
   <v name="AVECCONST">      0.00000000      0.00000000      0.00000000</v>
  </separator>
  <separator name="response functions" >
   <i type="logical" name="LADDER"> F  </i>
   <i type="logical" name="LRPAFORCE"> F  </i>
   <i type="logical" name="LFXC"> F  </i>
   <i type="logical" name="LHARTREE"> T  </i>
   <i type="int" name="IBSE">     0</i>
   <v type="int" name="KPOINT">    -1     0     0     0</v>
   <i type="logical" name="LTCTE"> F  </i>
   <i type="logical" name="LTETE"> F  </i>
   <i type="logical" name="LTRIPLET"> F  </i>
   <i type="logical" name="LFXCEPS"> F  </i>
   <i type="logical" name="LFXHEG"> F  </i>
   <i type="int" name="NATURALO">     2</i>
   <i type="logical" name="L2ORDER"> F  </i>
   <i type="logical" name="LMP2LT"> F  </i>
   <i type="logical" name="LUSEW"> F  </i>
   <i name="ENCUTGW">     -2.00000000</i>
   <i name="ENCUTGWSOFT">     -2.00000000</i>
   <i name="ENCUTLF">     -1.00000000</i>
   <i type="int" name="LMAXMP2">    -1</i>
   <i name="SCISSOR">      0.00000000</i>
   <i type="int" name="NOMEGA">     0</i>
   <i type="int" name="NOMEGAR">     0</i>
   <i type="int" name="NBANDSGW">    -1</i>
   <i type="int" name="NBANDSO">    -1</i>
   <i type="int" name="NBANDSV">    -1</i>
   <i type="int" name="NELM">     1</i>
   <i type="int" name="NELMHF">     1</i>
   <i type="int" name="DIM">     3</i>
   <i type="int" name="ANTIRES">     0</i>
   <i name="OMEGAMAX">    -30.00000000</i>
   <i name="OMEGAMIN">    -30.00000000</i>
   <i name="OMEGATL">   -200.00000000</i>
   <i type="int" name="OMEGAGRID">   140</i>
   <i name="CSHIFT">     -0.10000000</i>
   <i type="logical" name="SELFENERGY"> F  </i>
   <i type="logical" name="LSPECTRAL"> F  </i>
   <i type="logical" name="LSPECTRALGW"> F  </i>
   <i type="logical" name="LSINGLES"> F  </i>
   <i type="logical" name="LFERMIGW"> F  </i>
   <i type="logical" name="ODDONLYGW"> F  </i>
   <i type="logical" name="EVENONLYGW"> F  </i>
   <i type="int" name="NKREDLFX">     1</i>
   <i type="int" name="NKREDLFY">     1</i>
   <i type="int" name="NKREDLFZ">     1</i>
   <i type="int" name="MAXMEM">  2800</i>
   <i type="int" name="TELESCOPE">     0</i>
   <i type="int" name="TAUPAR">     1</i>
   <i type="int" name="OMEGAPAR">    -1</i>
   <i name="LAMBDA">      1.00000000</i>
  </separator>
  <separator name="External order field" >
   <i name="OFIELD_KAPPA">      0.00000000</i>
   <v name="OFIELD_K">      0.00000000      0.00000000      0.00000000</v>
   <i name="OFIELD_Q6_NEAR">      0.00000000</i>
   <i name="OFIELD_Q6_FAR">      0.00000000</i>
   <i name="OFIELD_A">      0.00000000</i>
  </separator>
 </parameters>
 <atominfo>
  <atoms>      16 </atoms>
  <types>       3 </types>
  <array name="atoms" >
   <dimension dim="1">ion</dimension>
   <field type="string">element</field>
   <field type="int">atomtype</field>
   <set>
    <rc><c>Au</c><c>   1</c></rc>
    <rc><c>Pt</c><c>   2</c></rc>
    <rc><c>Pt</c><c>   2</c></rc>
    <rc><c>Pt</c><c>   2</c></rc>
    <rc><c>Pt</c><c>   2</c></rc>
    <rc><c>Pt</c><c>   2</c></rc>
    <rc><c>Pt</c><c>   2</c></rc>
    <rc><c>Pt</c><c>   2</c></rc>
    <rc><c>Pt</c><c>   2</c></rc>
    <rc><c>Pt</c><c>   2</c></rc>
    <rc><c>Pt</c><c>   2</c></rc>
    <rc><c>Pt</c><c>   2</c></rc>
    <rc><c>Pt</c><c>   2</c></rc>
    <rc><c>Pt</c><c>   2</c></rc>
    <rc><c>Pt</c><c>   2</c></rc>
    <rc><c>Ir</c><c>   3</c></rc>
   </set>
  </array>
  <array name="atomtypes" >
   <dimension dim="1">type</dimension>
   <field type="int">atomspertype</field>
   <field type="string">element</field>
   <field>mass</field>
   <field>valence</field>
   <field type="string">pseudopotential</field>
   <set>
    <rc><c>   1</c><c>Au</c><c>    196.96600000</c><c>     11.00000000</c><c>  PAW_PBE Au 04Oct2007                  </c></rc>
    <rc><c>  14</c><c>Pt</c><c>    195.08000000</c><c>     10.00000000</c><c>  PAW_PBE Pt 04Feb2005                  </c></rc>
    <rc><c>   1</c><c>Ir</c><c>    192.22000000</c><c>      9.00000000</c><c>  PAW_PBE Ir 06Sep2000                  </c></rc>
   </set>
  </array>
 </atominfo>
 <structure name="initialpos" >
  <crystal>
   <varray name="basis" >
    <v>       5.55785930       0.00000000       0.00000000 </v>
    <v>       2.77892965       4.81324734       0.00000000 </v>
    <v>       0.00000000       0.00000000      30.80695967 </v>
   </varray>
   <i name="volume">    824.12780743 </i>
   <varray name="rec_basis" >
    <v>       0.17992539      -0.10387997       0.00000000 </v>
    <v>       0.00000000       0.20775994       0.00000000 </v>
    <v>       0.00000000       0.00000000       0.03246020 </v>
   </varray>
  </crystal>
  <varray name="positions" >
   <v>       0.00000000       0.00000000       0.38952237 </v>
   <v>       0.50000000       0.00000000       0.38952237 </v>
   <v>       0.00000000       0.50000000       0.38952237 </v>
   <v>       0.50000000       0.50000000       0.38952237 </v>
   <v>       0.16666667       0.16666667       0.46468540 </v>
   <v>       0.66666667       0.16666667       0.46468540 </v>
   <v>       0.16666667       0.66666667       0.46468540 </v>
   <v>       0.66666667       0.66666667       0.46468540 </v>
   <v>       0.33333333       0.33333333       0.53920296 </v>
   <v>       0.83333333       0.83333333       0.53920296 </v>
   <v>       0.33333333       0.83333333       0.53920296 </v>
   <v>       0.00000000       0.00000000       0.61486043 </v>
   <v>       0.50000000       0.00000000       0.61486043 </v>
   <v>       0.00000000       0.50000000       0.61486043 </v>
   <v>       0.50000000       0.50000000       0.61486043 </v>
   <v>       0.83333333       0.33333333       0.53920296 </v>
  </varray>
  <varray name="selective"  type="logical" >
   <v type="logical" >  F  F  F </v>
   <v type="logical" >  F  F  F </v>
   <v type="logical" >  F  F  F </v>
   <v type="logical" >  F  F  F </v>
   <v type="logical" >  T  T  T </v>
   <v type="logical" >  T  T  T </v>
   <v type="logical" >  T  T  T </v>
   <v type="logical" >  T  T  T </v>
   <v type="logical" >  T  T  T </v>
   <v type="logical" >  T  T  T </v>
   <v type="logical" >  T  T  T </v>
   <v type="logical" >  T  T  T </v>
   <v type="logical" >  T  T  T </v>
   <v type="logical" >  T  T  T </v>
   <v type="logical" >  T  T  T </v>
   <v type="logical" >  T  T  T </v>
  </varray>
  <nose>
   <v>      -3.00000000       0.00000000       0.00010000       0.00010000 </v>
  </nose>
 </structure>
 <calculation>
  <scstep>
   <time name="dav">   11.10   11.11</time>
   <time name="total">   11.13   11.15</time>
   <energy>
    <i name="alphaZ">    303.52543553 </i>
    <i name="ewald">  97993.82862264 </i>
    <i name="hartreedc">-110064.78898628 </i>
    <i name="XCdc">     46.30325056 </i>
    <i name="pawpsdc">  11171.21661038 </i>
    <i name="pawaedc"> -10711.84633960 </i>
    <i name="eentropy">      0.00413832 </i>
    <i name="bandstr">    546.31129797 </i>
    <i name="atom">  11693.69420960 </i>
    <i name="e_fr_energy">    978.24823912 </i>
    <i name="e_wo_entrp">    978.24410080 </i>
    <i name="e_0_energy">    978.24685968 </i>
   </energy>
  </scstep>
  <scstep>
   <time name="dav">   15.00   15.00</time>
   <time name="total">   15.00   15.00</time>
   <energy>
    <i name="e_fr_energy">    -39.49932452 </i>
    <i name="e_wo_entrp">    -39.49708296 </i>
    <i name="e_0_energy">    -39.49857733 </i>
   </energy>
  </scstep>
  <scstep>
   <time name="dav">   13.11   13.12</time>
   <time name="total">   13.11   13.12</time>
   <energy>
    <i name="e_fr_energy">    -97.50513645 </i>
    <i name="e_wo_entrp">    -97.49064324 </i>
    <i name="e_0_energy">    -97.50030538 </i>
   </energy>
  </scstep>
  <scstep>
   <time name="dav">   14.66   14.67</time>
   <time name="total">   14.66   14.67</time>
   <energy>
    <i name="e_fr_energy">    -98.72120166 </i>
    <i name="e_wo_entrp">    -98.70695062 </i>
    <i name="e_0_energy">    -98.71645131 </i>
   </energy>
  </scstep>
  <scstep>
   <time name="dav">   15.33   15.35</time>
   <time name="total">   15.68   15.69</time>
   <energy>
    <i name="e_fr_energy">    -98.75226833 </i>
    <i name="e_wo_entrp">    -98.73801045 </i>
    <i name="e_0_energy">    -98.74751570 </i>
   </energy>
  </scstep>
  <scstep>
   <time name="dav">   12.88   12.88</time>
   <time name="total">   13.25   13.26</time>
   <energy>
    <i name="e_fr_energy">    -94.75767102 </i>
    <i name="e_wo_entrp">    -94.71786330 </i>
    <i name="e_0_energy">    -94.74440178 </i>
   </energy>
  </scstep>
  <scstep>
   <time name="dav">   14.29   14.29</time>
   <time name="total">   14.65   14.65</time>
   <energy>
    <i name="e_fr_energy">   -120.31901838 </i>
    <i name="e_wo_entrp">   -120.30796775 </i>
    <i name="e_0_energy">   -120.31533484 </i>
   </energy>
  </scstep>
  <scstep>
   <time name="dav">   15.70   15.71</time>
   <time name="total">   16.07   16.08</time>
   <energy>
    <i name="e_fr_energy">    -96.49088959 </i>
    <i name="e_wo_entrp">    -96.49987763 </i>
    <i name="e_0_energy">    -96.49388561 </i>
   </energy>
  </scstep>
  <scstep>
   <time name="dav">   13.68   13.69</time>
   <time name="total">   14.04   14.05</time>
   <energy>
    <i name="e_fr_energy">   -104.62911665 </i>
    <i name="e_wo_entrp">   -104.64972213 </i>
    <i name="e_0_energy">   -104.63598514 </i>
   </energy>
  </scstep>
  <scstep>
   <time name="dav">   15.15   15.15</time>
   <time name="total">   15.51   15.52</time>
   <energy>
    <i name="e_fr_energy">    -95.98258410 </i>
    <i name="e_wo_entrp">    -95.96620178 </i>
    <i name="e_0_energy">    -95.97712332 </i>
   </energy>
  </scstep>
  <scstep>
   <time name="dav">   13.52   13.52</time>
   <time name="total">   13.91   13.91</time>
   <energy>
    <i name="e_fr_energy">    -92.71996454 </i>
    <i name="e_wo_entrp">    -92.70303705 </i>
    <i name="e_0_energy">    -92.71432204 </i>
   </energy>
  </scstep>
  <scstep>
   <time name="dav">   13.64   13.64</time>
   <time name="total">   14.03   14.04</time>
   <energy>
    <i name="e_fr_energy">    -92.84482186 </i>
    <i name="e_wo_entrp">    -92.80777989 </i>
    <i name="e_0_energy">    -92.83247453 </i>
   </energy>
  </scstep>
  <scstep>
   <time name="dav">   13.31   13.32</time>
   <time name="total">   13.71   13.72</time>
   <energy>
    <i name="e_fr_energy">    -92.56763204 </i>
    <i name="e_wo_entrp">    -92.55291243 </i>
    <i name="e_0_energy">    -92.56272550 </i>
   </energy>
  </scstep>
  <scstep>
   <time name="dav">   14.42   14.42</time>
   <time name="total">   14.82   14.82</time>
   <energy>
    <i name="e_fr_energy">    -92.50473981 </i>
    <i name="e_wo_entrp">    -92.47784805 </i>
    <i name="e_0_energy">    -92.49577589 </i>
   </energy>
  </scstep>
  <scstep>
   <time name="dav">   14.97   14.97</time>
   <time name="total">   15.37   15.37</time>
   <energy>
    <i name="e_fr_energy">    -92.51332021 </i>
    <i name="e_wo_entrp">    -92.49238242 </i>
    <i name="e_0_energy">    -92.50634095 </i>
   </energy>
  </scstep>
  <scstep>
   <time name="dav">   14.51   14.51</time>
   <time name="total">   14.90   14.90</time>
   <energy>
    <i name="e_fr_energy">    -92.49804430 </i>
    <i name="e_wo_entrp">    -92.47570920 </i>
    <i name="e_0_energy">    -92.49059926 </i>
   </energy>
  </scstep>
  <scstep>
   <time name="dav">   13.06   13.06</time>
   <time name="total">   13.46   13.46</time>
   <energy>
    <i name="e_fr_energy">    -92.47717302 </i>
    <i name="e_wo_entrp">    -92.45424079 </i>
    <i name="e_0_energy">    -92.46952894 </i>
   </energy>
  </scstep>
  <scstep>
   <time name="dav">   14.96   14.97</time>
   <time name="total">   15.36   15.37</time>
   <energy>
    <i name="e_fr_energy">    -92.46888718 </i>
    <i name="e_wo_entrp">    -92.44655355 </i>
    <i name="e_0_energy">    -92.46144264 </i>
   </energy>
  </scstep>
  <scstep>
   <time name="dav">   13.13   13.13</time>
   <time name="total">   13.52   13.53</time>
   <energy>
    <i name="e_fr_energy">    -92.46899636 </i>
    <i name="e_wo_entrp">    -92.44618675 </i>
    <i name="e_0_energy">    -92.46139315 </i>
   </energy>
  </scstep>
  <scstep>
   <time name="dav">   13.37   13.37</time>
   <time name="total">   13.76   13.76</time>
   <energy>
    <i name="e_fr_energy">    -92.46844646 </i>
    <i name="e_wo_entrp">    -92.44576114 </i>
    <i name="e_0_energy">    -92.46088469 </i>
   </energy>
  </scstep>
  <scstep>
   <time name="dav">   12.98   12.98</time>
   <time name="total">   13.38   13.38</time>
   <energy>
    <i name="e_fr_energy">    -92.46699294 </i>
    <i name="e_wo_entrp">    -92.44461943 </i>
    <i name="e_0_energy">    -92.45953510 </i>
   </energy>
  </scstep>
  <scstep>
   <time name="dav">   13.61   13.62</time>
   <time name="total">   14.00   14.02</time>
   <energy>
    <i name="e_fr_energy">    -92.46686142 </i>
    <i name="e_wo_entrp">    -92.44460802 </i>
    <i name="e_0_energy">    -92.45944362 </i>
   </energy>
  </scstep>
  <scstep>
   <time name="dav">   12.43   12.43</time>
   <time name="total">   12.83   12.83</time>
   <energy>
    <i name="e_fr_energy">    -92.46684425 </i>
    <i name="e_wo_entrp">    -92.44446826 </i>
    <i name="e_0_energy">    -92.45938558 </i>
   </energy>
  </scstep>
  <scstep>
   <time name="dav">    8.65    8.65</time>
   <time name="total">    8.67    8.67</time>
   <energy>
    <i name="alphaZ">    303.52543553 </i>
    <i name="ewald">  97993.82862264 </i>
    <i name="hartreedc">-109898.85763736 </i>
    <i name="XCdc">     40.69170592 </i>
    <i name="pawpsdc">  14186.81139234 </i>
    <i name="pawaedc"> -13771.66482152 </i>
    <i name="eentropy">     -0.02229750 </i>
    <i name="bandstr">   -640.47345520 </i>
    <i name="atom">  11693.69420960 </i>
    <i name="e_fr_energy">    -92.46684556 </i>
    <i name="e_wo_entrp">    -92.44454806 </i>
    <i name="e_0_energy">    -92.45941306 </i>
   </energy>
  </scstep>
  <dipole>
   <v name="dipole">      0.00000000       0.00000000       0.02273675 </v>
   <i name="Tr[quadrupol]">   -946.93609651 </i>
   <i name="Echarged">      0.00000000 </i>
   <i name="Edipol_quadrupol">      0.00000000 </i>
   <i name="Eion">      0.00000000 </i>
  </dipole>
  <structure>
   <crystal>
    <varray name="basis" >
     <v>       5.55785930       0.00000000       0.00000000 </v>
     <v>       2.77892965       4.81324734       0.00000000 </v>
     <v>       0.00000000       0.00000000      30.80695967 </v>
    </varray>
    <i name="volume">    824.12780743 </i>
    <varray name="rec_basis" >
     <v>       0.17992539      -0.10387997       0.00000000 </v>
     <v>       0.00000000       0.20775994       0.00000000 </v>
     <v>       0.00000000       0.00000000       0.03246020 </v>
    </varray>
   </crystal>
   <varray name="positions" >
    <v>       0.00000000       0.00000000       0.38952237 </v>
    <v>       0.50000000       0.00000000       0.38952237 </v>
    <v>       0.00000000       0.50000000       0.38952237 </v>
    <v>       0.50000000       0.50000000       0.38952237 </v>
    <v>       0.16666667       0.16666667       0.46468540 </v>
    <v>       0.66666667       0.16666667       0.46468540 </v>
    <v>       0.16666667       0.66666667       0.46468540 </v>
    <v>       0.66666667       0.66666667       0.46468540 </v>
    <v>       0.33333333       0.33333333       0.53920296 </v>
    <v>       0.83333333       0.83333333       0.53920296 </v>
    <v>       0.33333333       0.83333333       0.53920296 </v>
    <v>       0.00000000       0.00000000       0.61486043 </v>
    <v>       0.50000000       0.00000000       0.61486043 </v>
    <v>       0.00000000       0.50000000       0.61486043 </v>
    <v>       0.50000000       0.50000000       0.61486043 </v>
    <v>       0.83333333       0.33333333       0.53920296 </v>
   </varray>
  </structure>
  <varray name="forces" >
   <v>       0.00000000      -0.00842300      -1.16109583 </v>
   <v>       0.00000000      -0.00093893       0.14737014 </v>
   <v>       0.00851854       0.00745354       0.03331145 </v>
   <v>      -0.00851854       0.00745354       0.03331145 </v>
   <v>       0.00400935       0.12663623       0.48117126 </v>
   <v>      -0.00400935       0.12663623       0.48117126 </v>
   <v>       0.00000000      -0.15346279       0.16387514 </v>
   <v>      -0.00000000      -0.12741124       0.22384163 </v>
   <v>       0.00000000      -0.01440743       0.27777078 </v>
   <v>      -0.03114194       0.01372876       0.01854330 </v>
   <v>       0.03114194       0.01372876       0.01854330 </v>
   <v>       0.00000000       0.16739355      -0.24198021 </v>
   <v>       0.00000000      -0.03836569       0.04837588 </v>
   <v>      -0.16868386      -0.06537854      -0.21757524 </v>
   <v>       0.16868386      -0.06537854      -0.21757524 </v>
   <v>       0.00000000       0.01073554      -0.08905906 </v>
  </varray>
  <varray name="stress" >
   <v>     -21.72030098       0.00000000       0.00000000 </v>
   <v>       0.00000000     -21.84236524       0.07071590 </v>
   <v>       0.00000000       0.07071610      -2.42515253 </v>
  </varray>
  <energy>
   <i name="e_fr_energy">    -92.46678880 </i>
   <i name="e_wo_entrp">    -92.45935631 </i>
   <i name="e_0_energy">     -0.02229750 </i>
  </energy>
  <time name="totalsc">  354.82  354.97</time>
  <eigenvalues>
   <array>
    <dimension dim="1">band</dimension>
    <dimension dim="2">kpoint</dimension>
    <dimension dim="3">spin</dimension>
    <field>eigene</field>
    <field>occ</field>
    <set>
     <set comment="spin 1">
      <set comment="kpoint 1">
       <r>  -10.1851    1.0000 </r>
       <r>   -8.9120    1.0000 </r>
       <r>   -7.8576    1.0000 </r>
       <r>   -7.7157    1.0000 </r>
       <r>   -7.4487    1.0000 </r>
       <r>   -7.4243    1.0000 </r>
       <r>   -7.4122    1.0000 </r>
       <r>   -7.3061    1.0000 </r>
       <r>   -7.2832    1.0000 </r>
       <r>   -7.2570    1.0000 </r>
       <r>   -6.8219    1.0000 </r>
       <r>   -6.8086    1.0000 </r>
       <r>   -6.7996    1.0000 </r>
       <r>   -6.7893    1.0000 </r>
       <r>   -6.7803    1.0000 </r>
       <r>   -6.5941    1.0000 </r>
       <r>   -6.5516    1.0000 </r>
       <r>   -6.5427    1.0000 </r>
       <r>   -6.4899    1.0000 </r>
       <r>   -5.7968    1.0000 </r>
       <r>   -5.7751    1.0000 </r>
       <r>   -5.6745    1.0000 </r>
       <r>   -4.9433    1.0000 </r>
       <r>   -4.9209    1.0000 </r>
       <r>   -4.8073    1.0000 </r>
       <r>   -4.6613    1.0000 </r>
       <r>   -4.6401    1.0000 </r>
       <r>   -4.6337    1.0000 </r>
       <r>   -4.5683    1.0000 </r>
       <r>   -4.5074    1.0000 </r>
       <r>   -4.3229    1.0000 </r>
       <r>   -4.2817    1.0000 </r>
       <r>   -4.1662    1.0000 </r>
       <r>   -4.1498    1.0000 </r>
       <r>   -4.0492    1.0000 </r>
       <r>   -4.0077    1.0000 </r>
       <r>   -3.9881    1.0000 </r>
       <r>   -3.9328    1.0000 </r>
       <r>   -3.8957    1.0000 </r>
       <r>   -3.8563    1.0000 </r>
       <r>   -3.7686    1.0000 </r>
       <r>   -3.7522    1.0000 </r>
       <r>   -3.5064    1.0000 </r>
       <r>   -3.4670    1.0000 </r>
       <r>   -3.4099    1.0000 </r>
       <r>   -3.1821    1.0000 </r>
       <r>   -3.0875    1.0000 </r>
       <r>   -2.9411    1.0000 </r>
       <r>   -2.9032    1.0000 </r>
       <r>   -2.8148    1.0000 </r>
       <r>   -2.7171    1.0000 </r>
       <r>   -2.3300    1.0000 </r>
       <r>   -2.3152    1.0000 </r>
       <r>   -2.1057    1.0000 </r>
       <r>   -2.0794    1.0000 </r>
       <r>   -1.8584    1.0000 </r>
       <r>   -1.8090    1.0000 </r>
       <r>   -1.7321    1.0000 </r>
       <r>   -1.6804    1.0000 </r>
       <r>   -1.5958    1.0000 </r>
       <r>   -1.5743    1.0000 </r>
       <r>   -1.5446    1.0000 </r>
       <r>   -1.3234    1.0006 </r>
       <r>   -1.1663    1.0124 </r>
       <r>   -1.1342    1.0187 </r>
       <r>   -1.0699    1.0327 </r>
       <r>   -1.0237    1.0343 </r>
       <r>   -1.0088    1.0309 </r>
       <r>   -0.9361    0.9618 </r>
       <r>   -0.8976    0.8773 </r>
       <r>   -0.8231    0.6179 </r>
       <r>   -0.8073    0.5519 </r>
       <r>   -0.7802    0.4375 </r>
       <r>   -0.7159    0.1925 </r>
       <r>   -0.6924    0.1230 </r>
       <r>   -0.6260   -0.0006 </r>
       <r>   -0.5759   -0.0324 </r>
       <r>   -0.5369   -0.0349 </r>
       <r>   -0.3735   -0.0056 </r>
       <r>   -0.3644   -0.0047 </r>
       <r>   -0.2942   -0.0011 </r>
       <r>   -0.2190   -0.0002 </r>
       <r>   -0.1831   -0.0001 </r>
       <r>   -0.1582   -0.0000 </r>
       <r>   -0.0734   -0.0000 </r>
       <r>    0.0393   -0.0000 </r>
       <r>    0.3073   -0.0000 </r>
       <r>    0.3871   -0.0000 </r>
       <r>    1.2431   -0.0000 </r>
       <r>    1.4954   -0.0000 </r>
       <r>    1.6522   -0.0000 </r>
       <r>    1.6717   -0.0000 </r>
       <r>    1.7438   -0.0000 </r>
       <r>    1.8194   -0.0000 </r>
       <r>    2.6145   -0.0000 </r>
       <r>    2.6491   -0.0000 </r>
      </set>
      <set comment="kpoint 2">
       <r>  -10.1851    1.0000 </r>
       <r>   -8.9120    1.0000 </r>
       <r>   -7.8576    1.0000 </r>
       <r>   -7.7157    1.0000 </r>
       <r>   -7.4491    1.0000 </r>
       <r>   -7.4206    1.0000 </r>
       <r>   -7.4155    1.0000 </r>
       <r>   -7.3084    1.0000 </r>
       <r>   -7.2761    1.0000 </r>
       <r>   -7.2617    1.0000 </r>
       <r>   -6.8226    1.0000 </r>
       <r>   -6.8109    1.0000 </r>
       <r>   -6.7969    1.0000 </r>
       <r>   -6.7909    1.0000 </r>
       <r>   -6.7777    1.0000 </r>
       <r>   -6.5953    1.0000 </r>
       <r>   -6.5551    1.0000 </r>
       <r>   -6.5373    1.0000 </r>
       <r>   -6.4912    1.0000 </r>
       <r>   -5.7953    1.0000 </r>
       <r>   -5.7762    1.0000 </r>
       <r>   -5.6750    1.0000 </r>
       <r>   -4.9368    1.0000 </r>
       <r>   -4.9270    1.0000 </r>
       <r>   -4.8071    1.0000 </r>
       <r>   -4.6589    1.0000 </r>
       <r>   -4.6464    1.0000 </r>
       <r>   -4.6319    1.0000 </r>
       <r>   -4.5657    1.0000 </r>
       <r>   -4.5072    1.0000 </r>
       <r>   -4.3263    1.0000 </r>
       <r>   -4.2790    1.0000 </r>
       <r>   -4.1615    1.0000 </r>
       <r>   -4.1540    1.0000 </r>
       <r>   -4.0321    1.0000 </r>
       <r>   -4.0285    1.0000 </r>
       <r>   -3.9808    1.0000 </r>
       <r>   -3.9381    1.0000 </r>
       <r>   -3.8904    1.0000 </r>
       <r>   -3.8626    1.0000 </r>
       <r>   -3.7714    1.0000 </r>
       <r>   -3.7486    1.0000 </r>
       <r>   -3.5074    1.0000 </r>
       <r>   -3.4662    1.0000 </r>
       <r>   -3.4107    1.0000 </r>
       <r>   -3.1424    1.0000 </r>
       <r>   -3.1359    1.0000 </r>
       <r>   -2.9289    1.0000 </r>
       <r>   -2.9157    1.0000 </r>
       <r>   -2.7758    1.0000 </r>
       <r>   -2.7451    1.0000 </r>
       <r>   -2.3309    1.0000 </r>
       <r>   -2.3121    1.0000 </r>
       <r>   -2.1062    1.0000 </r>
       <r>   -2.0750    1.0000 </r>
       <r>   -1.8396    1.0000 </r>
       <r>   -1.8334    1.0000 </r>
       <r>   -1.7387    1.0000 </r>
       <r>   -1.6823    1.0000 </r>
       <r>   -1.5879    1.0000 </r>
       <r>   -1.5840    1.0000 </r>
       <r>   -1.5315    1.0000 </r>
       <r>   -1.3371    1.0004 </r>
       <r>   -1.1453    1.0164 </r>
       <r>   -1.1206    1.0218 </r>
       <r>   -1.1151    1.0230 </r>
       <r>   -1.0329    1.0353 </r>
       <r>   -1.0122    1.0319 </r>
       <r>   -0.9099    0.9084 </r>
       <r>   -0.8635    0.7719 </r>
       <r>   -0.8401    0.6855 </r>
       <r>   -0.8128    0.5753 </r>
       <r>   -0.7577    0.3451 </r>
       <r>   -0.7243    0.2207 </r>
       <r>   -0.6901    0.1168 </r>
       <r>   -0.6250   -0.0017 </r>
       <r>   -0.6033   -0.0203 </r>
       <r>   -0.5311   -0.0343 </r>
       <r>   -0.3804   -0.0063 </r>
       <r>   -0.3532   -0.0038 </r>
       <r>   -0.2927   -0.0011 </r>
       <r>   -0.2087   -0.0001 </r>
       <r>   -0.1966   -0.0001 </r>
       <r>   -0.1620   -0.0000 </r>
       <r>   -0.0776   -0.0000 </r>
       <r>    0.0420   -0.0000 </r>
       <r>    0.3322   -0.0000 </r>
       <r>    0.3635   -0.0000 </r>
       <r>    1.2404   -0.0000 </r>
       <r>    1.4981   -0.0000 </r>
       <r>    1.6404   -0.0000 </r>
       <r>    1.6847   -0.0000 </r>
       <r>    1.7774   -0.0000 </r>
       <r>    1.7877   -0.0000 </r>
       <r>    2.6229   -0.0000 </r>
       <r>    2.6362   -0.0000 </r>
      </set>
      <set comment="kpoint 3">
       <r>   -9.9806    1.0000 </r>
       <r>   -8.7104    1.0000 </r>
       <r>   -7.6537    1.0000 </r>
       <r>   -7.5199    1.0000 </r>
       <r>   -7.4285    1.0000 </r>
       <r>   -7.3503    1.0000 </r>
       <r>   -7.2311    1.0000 </r>
       <r>   -7.2129    1.0000 </r>
       <r>   -7.1677    1.0000 </r>
       <r>   -7.0896    1.0000 </r>
       <r>   -6.7391    1.0000 </r>
       <r>   -6.7113    1.0000 </r>
       <r>   -6.6994    1.0000 </r>
       <r>   -6.6945    1.0000 </r>
       <r>   -6.6401    1.0000 </r>
       <r>   -6.4853    1.0000 </r>
       <r>   -6.4362    1.0000 </r>
       <r>   -6.3786    1.0000 </r>
       <r>   -6.3136    1.0000 </r>
       <r>   -5.7416    1.0000 </r>
       <r>   -5.7123    1.0000 </r>
       <r>   -5.6187    1.0000 </r>
       <r>   -4.9815    1.0000 </r>
       <r>   -4.9061    1.0000 </r>
       <r>   -4.8428    1.0000 </r>
       <r>   -4.7188    1.0000 </r>
       <r>   -4.6385    1.0000 </r>
       <r>   -4.5783    1.0000 </r>
       <r>   -4.5446    1.0000 </r>
       <r>   -4.5225    1.0000 </r>
       <r>   -4.4227    1.0000 </r>
       <r>   -4.1728    1.0000 </r>
       <r>   -4.1404    1.0000 </r>
       <r>   -4.1363    1.0000 </r>
       <r>   -4.0633    1.0000 </r>
       <r>   -4.0263    1.0000 </r>
       <r>   -3.9835    1.0000 </r>
       <r>   -3.9778    1.0000 </r>
       <r>   -3.8832    1.0000 </r>
       <r>   -3.8420    1.0000 </r>
       <r>   -3.8153    1.0000 </r>
       <r>   -3.6677    1.0000 </r>
       <r>   -3.6225    1.0000 </r>
       <r>   -3.6044    1.0000 </r>
       <r>   -3.5444    1.0000 </r>
       <r>   -3.4653    1.0000 </r>
       <r>   -3.2776    1.0000 </r>
       <r>   -3.1254    1.0000 </r>
       <r>   -2.9515    1.0000 </r>
       <r>   -2.8288    1.0000 </r>
       <r>   -2.6802    1.0000 </r>
       <r>   -2.4503    1.0000 </r>
       <r>   -2.4070    1.0000 </r>
       <r>   -2.3188    1.0000 </r>
       <r>   -2.1402    1.0000 </r>
       <r>   -2.0260    1.0000 </r>
       <r>   -1.9783    1.0000 </r>
       <r>   -1.9361    1.0000 </r>
       <r>   -1.8610    1.0000 </r>
       <r>   -1.8355    1.0000 </r>
       <r>   -1.7644    1.0000 </r>
       <r>   -1.7371    1.0000 </r>
       <r>   -1.6517    1.0000 </r>
       <r>   -1.5959    1.0000 </r>
       <r>   -1.5135    1.0000 </r>
       <r>   -1.4437    1.0000 </r>
       <r>   -1.2842    1.0015 </r>
       <r>   -1.2238    1.0049 </r>
       <r>   -1.1543    1.0146 </r>
       <r>   -1.0707    1.0325 </r>
       <r>   -1.0566    1.0345 </r>
       <r>   -0.9898    1.0222 </r>
       <r>   -0.9372    0.9637 </r>
       <r>   -0.9096    0.9075 </r>
       <r>   -0.8594    0.7574 </r>
       <r>   -0.8106    0.5661 </r>
       <r>   -0.7749    0.4155 </r>
       <r>   -0.7232    0.2168 </r>
       <r>   -0.6979    0.1381 </r>
       <r>   -0.5716   -0.0334 </r>
       <r>   -0.5552   -0.0354 </r>
       <r>   -0.4510   -0.0177 </r>
       <r>   -0.3772   -0.0059 </r>
       <r>   -0.3256   -0.0022 </r>
       <r>   -0.3041   -0.0014 </r>
       <r>    0.1936   -0.0000 </r>
       <r>    0.2444   -0.0000 </r>
       <r>    0.8298   -0.0000 </r>
       <r>    0.8599   -0.0000 </r>
       <r>    1.1067   -0.0000 </r>
       <r>    1.2855   -0.0000 </r>
       <r>    1.6114   -0.0000 </r>
       <r>    2.1727   -0.0000 </r>
       <r>    2.5124   -0.0000 </r>
       <r>    3.0449   -0.0000 </r>
       <r>    3.3885   -0.0000 </r>
      </set>
      <set comment="kpoint 4">
       <r>   -9.9806    1.0000 </r>
       <r>   -8.7105    1.0000 </r>
       <r>   -7.6539    1.0000 </r>
       <r>   -7.5200    1.0000 </r>
       <r>   -7.4287    1.0000 </r>
       <r>   -7.3492    1.0000 </r>
       <r>   -7.2317    1.0000 </r>
       <r>   -7.2155    1.0000 </r>
       <r>   -7.1622    1.0000 </r>
       <r>   -7.0928    1.0000 </r>
       <r>   -6.7395    1.0000 </r>
       <r>   -6.7129    1.0000 </r>
       <r>   -6.7049    1.0000 </r>
       <r>   -6.6888    1.0000 </r>
       <r>   -6.6371    1.0000 </r>
       <r>   -6.4864    1.0000 </r>
       <r>   -6.4336    1.0000 </r>
       <r>   -6.3812    1.0000 </r>
       <r>   -6.3134    1.0000 </r>
       <r>   -5.7383    1.0000 </r>
       <r>   -5.7132    1.0000 </r>
       <r>   -5.6215    1.0000 </r>
       <r>   -4.9717    1.0000 </r>
       <r>   -4.9173    1.0000 </r>
       <r>   -4.8425    1.0000 </r>
       <r>   -4.7113    1.0000 </r>
       <r>   -4.6365    1.0000 </r>
       <r>   -4.5756    1.0000 </r>
       <r>   -4.5635    1.0000 </r>
       <r>   -4.5049    1.0000 </r>
       <r>   -4.4328    1.0000 </r>
       <r>   -4.1714    1.0000 </r>
       <r>   -4.1412    1.0000 </r>
       <r>   -4.1274    1.0000 </r>
       <r>   -4.0677    1.0000 </r>
       <r>   -4.0184    1.0000 </r>
       <r>   -4.0003    1.0000 </r>
       <r>   -3.9725    1.0000 </r>
       <r>   -3.8759    1.0000 </r>
       <r>   -3.8475    1.0000 </r>
       <r>   -3.8195    1.0000 </r>
       <r>   -3.6711    1.0000 </r>
       <r>   -3.6178    1.0000 </r>
       <r>   -3.6087    1.0000 </r>
       <r>   -3.5492    1.0000 </r>
       <r>   -3.4577    1.0000 </r>
       <r>   -3.2794    1.0000 </r>
       <r>   -3.1243    1.0000 </r>
       <r>   -2.9481    1.0000 </r>
       <r>   -2.8200    1.0000 </r>
       <r>   -2.6890    1.0000 </r>
       <r>   -2.4405    1.0000 </r>
       <r>   -2.4177    1.0000 </r>
       <r>   -2.3019    1.0000 </r>
       <r>   -2.1473    1.0000 </r>
       <r>   -2.0370    1.0000 </r>
       <r>   -1.9982    1.0000 </r>
       <r>   -1.9035    1.0000 </r>
       <r>   -1.8633    1.0000 </r>
       <r>   -1.8297    1.0000 </r>
       <r>   -1.7889    1.0000 </r>
       <r>   -1.7361    1.0000 </r>
       <r>   -1.6587    1.0000 </r>
       <r>   -1.5778    1.0000 </r>
       <r>   -1.5273    1.0000 </r>
       <r>   -1.4508    1.0000 </r>
       <r>   -1.2852    1.0014 </r>
       <r>   -1.2048    1.0068 </r>
       <r>   -1.1115    1.0239 </r>
       <r>   -1.0778    1.0313 </r>
       <r>   -1.0638    1.0336 </r>
       <r>   -0.9929    1.0240 </r>
       <r>   -0.9244    0.9401 </r>
       <r>   -0.9105    0.9098 </r>
       <r>   -0.8842    0.8392 </r>
       <r>   -0.8260    0.6295 </r>
       <r>   -0.7725    0.4056 </r>
       <r>   -0.7317    0.2466 </r>
       <r>   -0.6982    0.1390 </r>
       <r>   -0.5793   -0.0315 </r>
       <r>   -0.5602   -0.0350 </r>
       <r>   -0.4417   -0.0158 </r>
       <r>   -0.3714   -0.0054 </r>
       <r>   -0.3317   -0.0025 </r>
       <r>   -0.2925   -0.0011 </r>
       <r>    0.1998   -0.0000 </r>
       <r>    0.2410   -0.0000 </r>
       <r>    0.8363   -0.0000 </r>
       <r>    0.8532   -0.0000 </r>
       <r>    1.1059   -0.0000 </r>
       <r>    1.2861   -0.0000 </r>
       <r>    1.6124   -0.0000 </r>
       <r>    2.1726   -0.0000 </r>
       <r>    2.5123   -0.0000 </r>
       <r>    3.0447   -0.0000 </r>
       <r>    3.3878   -0.0000 </r>
      </set>
      <set comment="kpoint 5">
       <r>   -9.9806    1.0000 </r>
       <r>   -8.7105    1.0000 </r>
       <r>   -7.6541    1.0000 </r>
       <r>   -7.5202    1.0000 </r>
       <r>   -7.4281    1.0000 </r>
       <r>   -7.3495    1.0000 </r>
       <r>   -7.2324    1.0000 </r>
       <r>   -7.2155    1.0000 </r>
       <r>   -7.1594    1.0000 </r>
       <r>   -7.0950    1.0000 </r>
       <r>   -6.7394    1.0000 </r>
       <r>   -6.7166    1.0000 </r>
       <r>   -6.6988    1.0000 </r>
       <r>   -6.6942    1.0000 </r>
       <r>   -6.6327    1.0000 </r>
       <r>   -6.4892    1.0000 </r>
       <r>   -6.4336    1.0000 </r>
       <r>   -6.3776    1.0000 </r>
       <r>   -6.3157    1.0000 </r>
       <r>   -5.7318    1.0000 </r>
       <r>   -5.7185    1.0000 </r>
       <r>   -5.6230    1.0000 </r>
       <r>   -4.9673    1.0000 </r>
       <r>   -4.9201    1.0000 </r>
       <r>   -4.8444    1.0000 </r>
       <r>   -4.7117    1.0000 </r>
       <r>   -4.6247    1.0000 </r>
       <r>   -4.5801    1.0000 </r>
       <r>   -4.5703    1.0000 </r>
       <r>   -4.5037    1.0000 </r>
       <r>   -4.4346    1.0000 </r>
       <r>   -4.1646    1.0000 </r>
       <r>   -4.1384    1.0000 </r>
       <r>   -4.1256    1.0000 </r>
       <r>   -4.0774    1.0000 </r>
       <r>   -4.0138    1.0000 </r>
       <r>   -3.9992    1.0000 </r>
       <r>   -3.9687    1.0000 </r>
       <r>   -3.8902    1.0000 </r>
       <r>   -3.8459    1.0000 </r>
       <r>   -3.8233    1.0000 </r>
       <r>   -3.6721    1.0000 </r>
       <r>   -3.6108    1.0000 </r>
       <r>   -3.6018    1.0000 </r>
       <r>   -3.5631    1.0000 </r>
       <r>   -3.4430    1.0000 </r>
       <r>   -3.2986    1.0000 </r>
       <r>   -3.1131    1.0000 </r>
       <r>   -2.9508    1.0000 </r>
       <r>   -2.8049    1.0000 </r>
       <r>   -2.7004    1.0000 </r>
       <r>   -2.4453    1.0000 </r>
       <r>   -2.4083    1.0000 </r>
       <r>   -2.2909    1.0000 </r>
       <r>   -2.1595    1.0000 </r>
       <r>   -2.0435    1.0000 </r>
       <r>   -1.9970    1.0000 </r>
       <r>   -1.9001    1.0000 </r>
       <r>   -1.8605    1.0000 </r>
       <r>   -1.8368    1.0000 </r>
       <r>   -1.7858    1.0000 </r>
       <r>   -1.7506    1.0000 </r>
       <r>   -1.6384    1.0000 </r>
       <r>   -1.5873    1.0000 </r>
       <r>   -1.5356    1.0000 </r>
       <r>   -1.4442    1.0000 </r>
       <r>   -1.2821    1.0015 </r>
       <r>   -1.2156    1.0056 </r>
       <r>   -1.1332    1.0189 </r>
       <r>   -1.0725    1.0322 </r>
       <r>   -1.0381    1.0354 </r>
       <r>   -0.9839    1.0184 </r>
       <r>   -0.9408    0.9696 </r>
       <r>   -0.8983    0.8791 </r>
       <r>   -0.8723    0.8018 </r>
       <r>   -0.7935    0.4938 </r>
       <r>   -0.7774    0.4261 </r>
       <r>   -0.7570    0.3426 </r>
       <r>   -0.7121    0.1806 </r>
       <r>   -0.6008   -0.0218 </r>
       <r>   -0.5234   -0.0332 </r>
       <r>   -0.4256   -0.0127 </r>
       <r>   -0.4080   -0.0098 </r>
       <r>   -0.3323   -0.0026 </r>
       <r>   -0.2946   -0.0011 </r>
       <r>    0.1945   -0.0000 </r>
       <r>    0.2524   -0.0000 </r>
       <r>    0.8275   -0.0000 </r>
       <r>    0.8557   -0.0000 </r>
       <r>    1.1078   -0.0000 </r>
       <r>    1.2928   -0.0000 </r>
       <r>    1.6106   -0.0000 </r>
       <r>    2.1718   -0.0000 </r>
       <r>    2.5122   -0.0000 </r>
       <r>    3.0449   -0.0000 </r>
       <r>    3.3872   -0.0000 </r>
      </set>
      <set comment="kpoint 6">
       <r>   -9.5258    1.0000 </r>
       <r>   -8.2744    1.0000 </r>
       <r>   -7.5292    1.0000 </r>
       <r>   -7.2261    1.0000 </r>
       <r>   -7.1116    1.0000 </r>
       <r>   -7.1001    1.0000 </r>
       <r>   -7.0850    1.0000 </r>
       <r>   -6.8890    1.0000 </r>
       <r>   -6.8670    1.0000 </r>
       <r>   -6.7797    1.0000 </r>
       <r>   -6.6665    1.0000 </r>
       <r>   -6.4903    1.0000 </r>
       <r>   -6.4710    1.0000 </r>
       <r>   -6.4305    1.0000 </r>
       <r>   -6.3326    1.0000 </r>
       <r>   -6.2902    1.0000 </r>
       <r>   -6.1203    1.0000 </r>
       <r>   -6.0375    1.0000 </r>
       <r>   -5.9267    1.0000 </r>
       <r>   -5.6193    1.0000 </r>
       <r>   -5.5706    1.0000 </r>
       <r>   -5.5049    1.0000 </r>
       <r>   -5.0968    1.0000 </r>
       <r>   -5.0286    1.0000 </r>
       <r>   -4.9471    1.0000 </r>
       <r>   -4.8282    1.0000 </r>
       <r>   -4.8029    1.0000 </r>
       <r>   -4.6832    1.0000 </r>
       <r>   -4.5207    1.0000 </r>
       <r>   -4.4447    1.0000 </r>
       <r>   -4.4028    1.0000 </r>
       <r>   -4.2850    1.0000 </r>
       <r>   -4.2532    1.0000 </r>
       <r>   -4.2110    1.0000 </r>
       <r>   -4.1267    1.0000 </r>
       <r>   -4.0719    1.0000 </r>
       <r>   -4.0153    1.0000 </r>
       <r>   -3.9432    1.0000 </r>
       <r>   -3.8925    1.0000 </r>
       <r>   -3.8524    1.0000 </r>
       <r>   -3.8137    1.0000 </r>
       <r>   -3.7920    1.0000 </r>
       <r>   -3.7752    1.0000 </r>
       <r>   -3.7329    1.0000 </r>
       <r>   -3.6136    1.0000 </r>
       <r>   -3.4994    1.0000 </r>
       <r>   -3.4526    1.0000 </r>
       <r>   -3.2895    1.0000 </r>
       <r>   -3.0620    1.0000 </r>
       <r>   -2.9898    1.0000 </r>
       <r>   -2.8812    1.0000 </r>
       <r>   -2.7891    1.0000 </r>
       <r>   -2.7315    1.0000 </r>
       <r>   -2.6795    1.0000 </r>
       <r>   -2.5966    1.0000 </r>
       <r>   -2.5883    1.0000 </r>
       <r>   -2.5458    1.0000 </r>
       <r>   -2.5039    1.0000 </r>
       <r>   -2.4698    1.0000 </r>
       <r>   -2.3724    1.0000 </r>
       <r>   -2.2069    1.0000 </r>
       <r>   -2.1140    1.0000 </r>
       <r>   -2.0687    1.0000 </r>
       <r>   -1.9070    1.0000 </r>
       <r>   -1.8909    1.0000 </r>
       <r>   -1.8315    1.0000 </r>
       <r>   -1.6707    1.0000 </r>
       <r>   -1.5922    1.0000 </r>
       <r>   -1.5640    1.0000 </r>
       <r>   -1.5064    1.0000 </r>
       <r>   -1.4256    1.0000 </r>
       <r>   -1.3812    1.0001 </r>
       <r>   -1.2825    1.0015 </r>
       <r>   -1.2191    1.0053 </r>
       <r>   -1.1485    1.0157 </r>
       <r>   -1.1018    1.0261 </r>
       <r>   -1.0411    1.0355 </r>
       <r>   -0.9907    1.0228 </r>
       <r>   -0.9115    0.9120 </r>
       <r>   -0.8428    0.6963 </r>
       <r>   -0.7888    0.4737 </r>
       <r>   -0.7072    0.1652 </r>
       <r>   -0.6271    0.0005 </r>
       <r>   -0.5854   -0.0294 </r>
       <r>   -0.3583   -0.0042 </r>
       <r>    0.3027   -0.0000 </r>
       <r>    0.3832   -0.0000 </r>
       <r>    0.5649   -0.0000 </r>
       <r>    0.9214   -0.0000 </r>
       <r>    1.7433   -0.0000 </r>
       <r>    1.8922   -0.0000 </r>
       <r>    1.9279   -0.0000 </r>
       <r>    2.2797   -0.0000 </r>
       <r>    2.6815   -0.0000 </r>
       <r>    3.2071   -0.0000 </r>
       <r>    3.9312   -0.0000 </r>
      </set>
      <set comment="kpoint 7">
       <r>   -9.5259    1.0000 </r>
       <r>   -8.2744    1.0000 </r>
       <r>   -7.5292    1.0000 </r>
       <r>   -7.2265    1.0000 </r>
       <r>   -7.1111    1.0000 </r>
       <r>   -7.0987    1.0000 </r>
       <r>   -7.0869    1.0000 </r>
       <r>   -6.8892    1.0000 </r>
       <r>   -6.8660    1.0000 </r>
       <r>   -6.7802    1.0000 </r>
       <r>   -6.6667    1.0000 </r>
       <r>   -6.4888    1.0000 </r>
       <r>   -6.4755    1.0000 </r>
       <r>   -6.4291    1.0000 </r>
       <r>   -6.3354    1.0000 </r>
       <r>   -6.2835    1.0000 </r>
       <r>   -6.1217    1.0000 </r>
       <r>   -6.0391    1.0000 </r>
       <r>   -5.9261    1.0000 </r>
       <r>   -5.6192    1.0000 </r>
       <r>   -5.5669    1.0000 </r>
       <r>   -5.5092    1.0000 </r>
       <r>   -5.0916    1.0000 </r>
       <r>   -5.0255    1.0000 </r>
       <r>   -4.9556    1.0000 </r>
       <r>   -4.8261    1.0000 </r>
       <r>   -4.7978    1.0000 </r>
       <r>   -4.6834    1.0000 </r>
       <r>   -4.5073    1.0000 </r>
       <r>   -4.4653    1.0000 </r>
       <r>   -4.4032    1.0000 </r>
       <r>   -4.2875    1.0000 </r>
       <r>   -4.2463    1.0000 </r>
       <r>   -4.2104    1.0000 </r>
       <r>   -4.1355    1.0000 </r>
       <r>   -4.0736    1.0000 </r>
       <r>   -4.0086    1.0000 </r>
       <r>   -3.9322    1.0000 </r>
       <r>   -3.9113    1.0000 </r>
       <r>   -3.8561    1.0000 </r>
       <r>   -3.8345    1.0000 </r>
       <r>   -3.7820    1.0000 </r>
       <r>   -3.7581    1.0000 </r>
       <r>   -3.7165    1.0000 </r>
       <r>   -3.6046    1.0000 </r>
       <r>   -3.5281    1.0000 </r>
       <r>   -3.4467    1.0000 </r>
       <r>   -3.2905    1.0000 </r>
       <r>   -3.0563    1.0000 </r>
       <r>   -2.9902    1.0000 </r>
       <r>   -2.8783    1.0000 </r>
       <r>   -2.7983    1.0000 </r>
       <r>   -2.7296    1.0000 </r>
       <r>   -2.6783    1.0000 </r>
       <r>   -2.6092    1.0000 </r>
       <r>   -2.5755    1.0000 </r>
       <r>   -2.5431    1.0000 </r>
       <r>   -2.5003    1.0000 </r>
       <r>   -2.4648    1.0000 </r>
       <r>   -2.3725    1.0000 </r>
       <r>   -2.2066    1.0000 </r>
       <r>   -2.1008    1.0000 </r>
       <r>   -2.0786    1.0000 </r>
       <r>   -1.9304    1.0000 </r>
       <r>   -1.8792    1.0000 </r>
       <r>   -1.8211    1.0000 </r>
       <r>   -1.6945    1.0000 </r>
       <r>   -1.5983    1.0000 </r>
       <r>   -1.5356    1.0000 </r>
       <r>   -1.5121    1.0000 </r>
       <r>   -1.4610    1.0000 </r>
       <r>   -1.3734    1.0002 </r>
       <r>   -1.2704    1.0020 </r>
       <r>   -1.2120    1.0060 </r>
       <r>   -1.1563    1.0142 </r>
       <r>   -1.0920    1.0283 </r>
       <r>   -1.0439    1.0354 </r>
       <r>   -0.9942    1.0247 </r>
       <r>   -0.9130    0.9155 </r>
       <r>   -0.8384    0.6789 </r>
       <r>   -0.7788    0.4316 </r>
       <r>   -0.7134    0.1848 </r>
       <r>   -0.6180   -0.0087 </r>
       <r>   -0.5954   -0.0249 </r>
       <r>   -0.3572   -0.0041 </r>
       <r>    0.3039   -0.0000 </r>
       <r>    0.3820   -0.0000 </r>
       <r>    0.5659   -0.0000 </r>
       <r>    0.9231   -0.0000 </r>
       <r>    1.7439   -0.0000 </r>
       <r>    1.8860   -0.0000 </r>
       <r>    1.9324   -0.0000 </r>
       <r>    2.2795   -0.0000 </r>
       <r>    2.6825   -0.0000 </r>
       <r>    3.2066   -0.0000 </r>
       <r>    3.9300   -0.0000 </r>
      </set>
      <set comment="kpoint 8">
       <r>   -9.5259    1.0000 </r>
       <r>   -8.2747    1.0000 </r>
       <r>   -7.5282    1.0000 </r>
       <r>   -7.2308    1.0000 </r>
       <r>   -7.1086    1.0000 </r>
       <r>   -7.0994    1.0000 </r>
       <r>   -7.0857    1.0000 </r>
       <r>   -6.8910    1.0000 </r>
       <r>   -6.8601    1.0000 </r>
       <r>   -6.7856    1.0000 </r>
       <r>   -6.6649    1.0000 </r>
       <r>   -6.4907    1.0000 </r>
       <r>   -6.4723    1.0000 </r>
       <r>   -6.4375    1.0000 </r>
       <r>   -6.3283    1.0000 </r>
       <r>   -6.2832    1.0000 </r>
       <r>   -6.1223    1.0000 </r>
       <r>   -6.0322    1.0000 </r>
       <r>   -5.9328    1.0000 </r>
       <r>   -5.5987    1.0000 </r>
       <r>   -5.5816    1.0000 </r>
       <r>   -5.5151    1.0000 </r>
       <r>   -5.0934    1.0000 </r>
       <r>   -5.0331    1.0000 </r>
       <r>   -4.9403    1.0000 </r>
       <r>   -4.8262    1.0000 </r>
       <r>   -4.7756    1.0000 </r>
       <r>   -4.7144    1.0000 </r>
       <r>   -4.4982    1.0000 </r>
       <r>   -4.4695    1.0000 </r>
       <r>   -4.4096    1.0000 </r>
       <r>   -4.2722    1.0000 </r>
       <r>   -4.2463    1.0000 </r>
       <r>   -4.2222    1.0000 </r>
       <r>   -4.1123    1.0000 </r>
       <r>   -4.0773    1.0000 </r>
       <r>   -4.0160    1.0000 </r>
       <r>   -3.9306    1.0000 </r>
       <r>   -3.9128    1.0000 </r>
       <r>   -3.8572    1.0000 </r>
       <r>   -3.8119    1.0000 </r>
       <r>   -3.7959    1.0000 </r>
       <r>   -3.7749    1.0000 </r>
       <r>   -3.7181    1.0000 </r>
       <r>   -3.6523    1.0000 </r>
       <r>   -3.4985    1.0000 </r>
       <r>   -3.4375    1.0000 </r>
       <r>   -3.2858    1.0000 </r>
       <r>   -3.0353    1.0000 </r>
       <r>   -2.9950    1.0000 </r>
       <r>   -2.8751    1.0000 </r>
       <r>   -2.7895    1.0000 </r>
       <r>   -2.7355    1.0000 </r>
       <r>   -2.7076    1.0000 </r>
       <r>   -2.6016    1.0000 </r>
       <r>   -2.5702    1.0000 </r>
       <r>   -2.5326    1.0000 </r>
       <r>   -2.5015    1.0000 </r>
       <r>   -2.4661    1.0000 </r>
       <r>   -2.3654    1.0000 </r>
       <r>   -2.2058    1.0000 </r>
       <r>   -2.1402    1.0000 </r>
       <r>   -2.0713    1.0000 </r>
       <r>   -1.9330    1.0000 </r>
       <r>   -1.8728    1.0000 </r>
       <r>   -1.8017    1.0000 </r>
       <r>   -1.6873    1.0000 </r>
       <r>   -1.5956    1.0000 </r>
       <r>   -1.5772    1.0000 </r>
       <r>   -1.4925    1.0000 </r>
       <r>   -1.4509    1.0000 </r>
       <r>   -1.4069    1.0001 </r>
       <r>   -1.2637    1.0023 </r>
       <r>   -1.2097    1.0063 </r>
       <r>   -1.1293    1.0198 </r>
       <r>   -1.0878    1.0292 </r>
       <r>   -1.0475    1.0352 </r>
       <r>   -1.0014    1.0281 </r>
       <r>   -0.8901    0.8564 </r>
       <r>   -0.8410    0.6891 </r>
       <r>   -0.7850    0.4579 </r>
       <r>   -0.7578    0.3456 </r>
       <r>   -0.6373    0.0130 </r>
       <r>   -0.5122   -0.0313 </r>
       <r>   -0.4064   -0.0096 </r>
       <r>    0.3170   -0.0000 </r>
       <r>    0.3774   -0.0000 </r>
       <r>    0.5735   -0.0000 </r>
       <r>    0.9184   -0.0000 </r>
       <r>    1.7413   -0.0000 </r>
       <r>    1.8990   -0.0000 </r>
       <r>    1.9293   -0.0000 </r>
       <r>    2.2746   -0.0000 </r>
       <r>    2.6809   -0.0000 </r>
       <r>    3.2054   -0.0000 </r>
       <r>    3.9308   -0.0000 </r>
      </set>
      <set comment="kpoint 9">
       <r>   -8.8852    1.0000 </r>
       <r>   -7.8974    1.0000 </r>
       <r>   -7.7123    1.0000 </r>
       <r>   -7.1328    1.0000 </r>
       <r>   -6.7766    1.0000 </r>
       <r>   -6.7582    1.0000 </r>
       <r>   -6.5937    1.0000 </r>
       <r>   -6.5570    1.0000 </r>
       <r>   -6.5423    1.0000 </r>
       <r>   -6.5161    1.0000 </r>
       <r>   -6.4653    1.0000 </r>
       <r>   -6.2180    1.0000 </r>
       <r>   -6.1715    1.0000 </r>
       <r>   -6.0652    1.0000 </r>
       <r>   -6.0322    1.0000 </r>
       <r>   -5.9745    1.0000 </r>
       <r>   -5.8207    1.0000 </r>
       <r>   -5.6788    1.0000 </r>
       <r>   -5.5175    1.0000 </r>
       <r>   -5.4269    1.0000 </r>
       <r>   -5.3902    1.0000 </r>
       <r>   -5.3453    1.0000 </r>
       <r>   -5.2919    1.0000 </r>
       <r>   -5.1795    1.0000 </r>
       <r>   -5.0603    1.0000 </r>
       <r>   -5.0157    1.0000 </r>
       <r>   -4.9500    1.0000 </r>
       <r>   -4.7730    1.0000 </r>
       <r>   -4.6943    1.0000 </r>
       <r>   -4.6592    1.0000 </r>
       <r>   -4.6243    1.0000 </r>
       <r>   -4.4945    1.0000 </r>
       <r>   -4.4548    1.0000 </r>
       <r>   -4.3800    1.0000 </r>
       <r>   -4.3273    1.0000 </r>
       <r>   -4.2275    1.0000 </r>
       <r>   -4.1348    1.0000 </r>
       <r>   -4.0822    1.0000 </r>
       <r>   -3.9777    1.0000 </r>
       <r>   -3.8932    1.0000 </r>
       <r>   -3.8066    1.0000 </r>
       <r>   -3.7498    1.0000 </r>
       <r>   -3.7166    1.0000 </r>
       <r>   -3.6733    1.0000 </r>
       <r>   -3.6268    1.0000 </r>
       <r>   -3.5780    1.0000 </r>
       <r>   -3.5333    1.0000 </r>
       <r>   -3.4880    1.0000 </r>
       <r>   -3.3908    1.0000 </r>
       <r>   -3.3398    1.0000 </r>
       <r>   -3.2946    1.0000 </r>
       <r>   -3.2644    1.0000 </r>
       <r>   -3.2181    1.0000 </r>
       <r>   -3.0354    1.0000 </r>
       <r>   -2.9562    1.0000 </r>
       <r>   -2.9350    1.0000 </r>
       <r>   -2.8475    1.0000 </r>
       <r>   -2.7976    1.0000 </r>
       <r>   -2.7624    1.0000 </r>
       <r>   -2.5499    1.0000 </r>
       <r>   -2.4930    1.0000 </r>
       <r>   -2.3747    1.0000 </r>
       <r>   -2.3154    1.0000 </r>
       <r>   -2.2721    1.0000 </r>
       <r>   -2.2146    1.0000 </r>
       <r>   -2.1480    1.0000 </r>
       <r>   -2.0918    1.0000 </r>
       <r>   -1.9688    1.0000 </r>
       <r>   -1.9091    1.0000 </r>
       <r>   -1.8700    1.0000 </r>
       <r>   -1.8195    1.0000 </r>
       <r>   -1.7730    1.0000 </r>
       <r>   -1.6779    1.0000 </r>
       <r>   -1.5431    1.0000 </r>
       <r>   -1.3985    1.0001 </r>
       <r>   -1.3034    1.0010 </r>
       <r>   -1.2222    1.0050 </r>
       <r>   -1.0946    1.0277 </r>
       <r>   -0.9118    0.9127 </r>
       <r>   -0.8989    0.8807 </r>
       <r>   -0.7838    0.4530 </r>
       <r>   -0.6982    0.1388 </r>
       <r>   -0.6263   -0.0003 </r>
       <r>   -0.5790   -0.0316 </r>
       <r>   -0.3485   -0.0035 </r>
       <r>   -0.1749   -0.0001 </r>
       <r>    0.7210   -0.0000 </r>
       <r>    1.0192   -0.0000 </r>
       <r>    1.0396   -0.0000 </r>
       <r>    1.8431   -0.0000 </r>
       <r>    1.9830   -0.0000 </r>
       <r>    2.0589   -0.0000 </r>
       <r>    2.4242   -0.0000 </r>
       <r>    3.0475   -0.0000 </r>
       <r>    3.5499   -0.0000 </r>
       <r>    4.0191   -0.0000 </r>
      </set>
      <set comment="kpoint 10">
       <r>   -8.8853    1.0000 </r>
       <r>   -7.8974    1.0000 </r>
       <r>   -7.7124    1.0000 </r>
       <r>   -7.1328    1.0000 </r>
       <r>   -6.7770    1.0000 </r>
       <r>   -6.7568    1.0000 </r>
       <r>   -6.5987    1.0000 </r>
       <r>   -6.5538    1.0000 </r>
       <r>   -6.5405    1.0000 </r>
       <r>   -6.5171    1.0000 </r>
       <r>   -6.4661    1.0000 </r>
       <r>   -6.2208    1.0000 </r>
       <r>   -6.1678    1.0000 </r>
       <r>   -6.0625    1.0000 </r>
       <r>   -6.0354    1.0000 </r>
       <r>   -5.9738    1.0000 </r>
       <r>   -5.8221    1.0000 </r>
       <r>   -5.6795    1.0000 </r>
       <r>   -5.5197    1.0000 </r>
       <r>   -5.4264    1.0000 </r>
       <r>   -5.3851    1.0000 </r>
       <r>   -5.3416    1.0000 </r>
       <r>   -5.2922    1.0000 </r>
       <r>   -5.1809    1.0000 </r>
       <r>   -5.0609    1.0000 </r>
       <r>   -5.0200    1.0000 </r>
       <r>   -4.9469    1.0000 </r>
       <r>   -4.7602    1.0000 </r>
       <r>   -4.6953    1.0000 </r>
       <r>   -4.6588    1.0000 </r>
       <r>   -4.6429    1.0000 </r>
       <r>   -4.5008    1.0000 </r>
       <r>   -4.4319    1.0000 </r>
       <r>   -4.3878    1.0000 </r>
       <r>   -4.3342    1.0000 </r>
       <r>   -4.2318    1.0000 </r>
       <r>   -4.1375    1.0000 </r>
       <r>   -4.0735    1.0000 </r>
       <r>   -3.9799    1.0000 </r>
       <r>   -3.8912    1.0000 </r>
       <r>   -3.7920    1.0000 </r>
       <r>   -3.7685    1.0000 </r>
       <r>   -3.7048    1.0000 </r>
       <r>   -3.6552    1.0000 </r>
       <r>   -3.6425    1.0000 </r>
       <r>   -3.5729    1.0000 </r>
       <r>   -3.5518    1.0000 </r>
       <r>   -3.4953    1.0000 </r>
       <r>   -3.3924    1.0000 </r>
       <r>   -3.3349    1.0000 </r>
       <r>   -3.2989    1.0000 </r>
       <r>   -3.2587    1.0000 </r>
       <r>   -3.2048    1.0000 </r>
       <r>   -3.0069    1.0000 </r>
       <r>   -2.9822    1.0000 </r>
       <r>   -2.9350    1.0000 </r>
       <r>   -2.8518    1.0000 </r>
       <r>   -2.8065    1.0000 </r>
       <r>   -2.7559    1.0000 </r>
       <r>   -2.5492    1.0000 </r>
       <r>   -2.5012    1.0000 </r>
       <r>   -2.3959    1.0000 </r>
       <r>   -2.2980    1.0000 </r>
       <r>   -2.2589    1.0000 </r>
       <r>   -2.1992    1.0000 </r>
       <r>   -2.1605    1.0000 </r>
       <r>   -2.0446    1.0000 </r>
       <r>   -2.0228    1.0000 </r>
       <r>   -1.9508    1.0000 </r>
       <r>   -1.8653    1.0000 </r>
       <r>   -1.8064    1.0000 </r>
       <r>   -1.7528    1.0000 </r>
       <r>   -1.6778    1.0000 </r>
       <r>   -1.5387    1.0000 </r>
       <r>   -1.3989    1.0001 </r>
       <r>   -1.3043    1.0009 </r>
       <r>   -1.2237    1.0049 </r>
       <r>   -1.0925    1.0282 </r>
       <r>   -0.9354    0.9607 </r>
       <r>   -0.8757    0.8128 </r>
       <r>   -0.7812    0.4417 </r>
       <r>   -0.7011    0.1472 </r>
       <r>   -0.6198   -0.0070 </r>
       <r>   -0.5870   -0.0288 </r>
       <r>   -0.3466   -0.0034 </r>
       <r>   -0.1755   -0.0001 </r>
       <r>    0.7210   -0.0000 </r>
       <r>    1.0052   -0.0000 </r>
       <r>    1.0554   -0.0000 </r>
       <r>    1.8447   -0.0000 </r>
       <r>    1.9736   -0.0000 </r>
       <r>    2.0658   -0.0000 </r>
       <r>    2.4242   -0.0000 </r>
       <r>    3.0476   -0.0000 </r>
       <r>    3.5498   -0.0000 </r>
       <r>    4.0184   -0.0000 </r>
      </set>
      <set comment="kpoint 11">
       <r>   -8.8854    1.0000 </r>
       <r>   -7.8987    1.0000 </r>
       <r>   -7.7107    1.0000 </r>
       <r>   -7.1344    1.0000 </r>
       <r>   -6.7794    1.0000 </r>
       <r>   -6.7594    1.0000 </r>
       <r>   -6.5991    1.0000 </r>
       <r>   -6.5519    1.0000 </r>
       <r>   -6.5325    1.0000 </r>
       <r>   -6.5192    1.0000 </r>
       <r>   -6.4697    1.0000 </r>
       <r>   -6.2205    1.0000 </r>
       <r>   -6.1630    1.0000 </r>
       <r>   -6.0648    1.0000 </r>
       <r>   -6.0479    1.0000 </r>
       <r>   -5.9667    1.0000 </r>
       <r>   -5.8157    1.0000 </r>
       <r>   -5.6517    1.0000 </r>
       <r>   -5.5435    1.0000 </r>
       <r>   -5.4309    1.0000 </r>
       <r>   -5.3776    1.0000 </r>
       <r>   -5.3438    1.0000 </r>
       <r>   -5.2925    1.0000 </r>
       <r>   -5.1904    1.0000 </r>
       <r>   -5.0446    1.0000 </r>
       <r>   -5.0131    1.0000 </r>
       <r>   -4.9610    1.0000 </r>
       <r>   -4.7435    1.0000 </r>
       <r>   -4.7165    1.0000 </r>
       <r>   -4.6604    1.0000 </r>
       <r>   -4.6492    1.0000 </r>
       <r>   -4.5007    1.0000 </r>
       <r>   -4.4457    1.0000 </r>
       <r>   -4.3766    1.0000 </r>
       <r>   -4.3158    1.0000 </r>
       <r>   -4.2286    1.0000 </r>
       <r>   -4.1369    1.0000 </r>
       <r>   -4.0743    1.0000 </r>
       <r>   -3.9705    1.0000 </r>
       <r>   -3.8885    1.0000 </r>
       <r>   -3.8126    1.0000 </r>
       <r>   -3.7664    1.0000 </r>
       <r>   -3.7219    1.0000 </r>
       <r>   -3.6777    1.0000 </r>
       <r>   -3.6237    1.0000 </r>
       <r>   -3.5891    1.0000 </r>
       <r>   -3.5439    1.0000 </r>
       <r>   -3.4883    1.0000 </r>
       <r>   -3.3733    1.0000 </r>
       <r>   -3.3347    1.0000 </r>
       <r>   -3.2912    1.0000 </r>
       <r>   -3.2649    1.0000 </r>
       <r>   -3.2021    1.0000 </r>
       <r>   -3.0108    1.0000 </r>
       <r>   -2.9855    1.0000 </r>
       <r>   -2.9264    1.0000 </r>
       <r>   -2.8370    1.0000 </r>
       <r>   -2.8099    1.0000 </r>
       <r>   -2.7743    1.0000 </r>
       <r>   -2.5373    1.0000 </r>
       <r>   -2.5043    1.0000 </r>
       <r>   -2.3768    1.0000 </r>
       <r>   -2.3404    1.0000 </r>
       <r>   -2.2556    1.0000 </r>
       <r>   -2.1966    1.0000 </r>
       <r>   -2.1648    1.0000 </r>
       <r>   -2.0401    1.0000 </r>
       <r>   -2.0015    1.0000 </r>
       <r>   -1.9226    1.0000 </r>
       <r>   -1.8654    1.0000 </r>
       <r>   -1.8086    1.0000 </r>
       <r>   -1.7903    1.0000 </r>
       <r>   -1.6954    1.0000 </r>
       <r>   -1.5687    1.0000 </r>
       <r>   -1.3781    1.0001 </r>
       <r>   -1.2543    1.0027 </r>
       <r>   -1.2421    1.0035 </r>
       <r>   -1.1236    1.0211 </r>
       <r>   -0.9078    0.9032 </r>
       <r>   -0.8431    0.6971 </r>
       <r>   -0.8003    0.5226 </r>
       <r>   -0.7461    0.2997 </r>
       <r>   -0.6363    0.0116 </r>
       <r>   -0.5219   -0.0330 </r>
       <r>   -0.3791   -0.0061 </r>
       <r>   -0.1727   -0.0000 </r>
       <r>    0.7318   -0.0000 </r>
       <r>    1.0213   -0.0000 </r>
       <r>    1.0359   -0.0000 </r>
       <r>    1.8315   -0.0000 </r>
       <r>    1.9796   -0.0000 </r>
       <r>    2.0884   -0.0000 </r>
       <r>    2.4109   -0.0000 </r>
       <r>    3.0455   -0.0000 </r>
       <r>    3.5444   -0.0000 </r>
       <r>    4.0240   -0.0000 </r>
      </set>
      <set comment="kpoint 12">
       <r>   -8.5337    1.0000 </r>
       <r>   -8.1934    1.0000 </r>
       <r>   -7.4562    1.0000 </r>
       <r>   -7.2480    1.0000 </r>
       <r>   -6.6715    1.0000 </r>
       <r>   -6.6504    1.0000 </r>
       <r>   -6.5325    1.0000 </r>
       <r>   -6.4670    1.0000 </r>
       <r>   -6.4254    1.0000 </r>
       <r>   -6.3539    1.0000 </r>
       <r>   -6.3200    1.0000 </r>
       <r>   -6.1931    1.0000 </r>
       <r>   -6.1259    1.0000 </r>
       <r>   -6.0038    1.0000 </r>
       <r>   -5.8757    1.0000 </r>
       <r>   -5.7620    1.0000 </r>
       <r>   -5.6759    1.0000 </r>
       <r>   -5.6293    1.0000 </r>
       <r>   -5.5645    1.0000 </r>
       <r>   -5.4526    1.0000 </r>
       <r>   -5.3565    1.0000 </r>
       <r>   -5.2585    1.0000 </r>
       <r>   -5.2223    1.0000 </r>
       <r>   -5.1843    1.0000 </r>
       <r>   -5.1071    1.0000 </r>
       <r>   -5.0616    1.0000 </r>
       <r>   -4.9955    1.0000 </r>
       <r>   -4.8982    1.0000 </r>
       <r>   -4.7356    1.0000 </r>
       <r>   -4.6953    1.0000 </r>
       <r>   -4.6626    1.0000 </r>
       <r>   -4.5545    1.0000 </r>
       <r>   -4.5315    1.0000 </r>
       <r>   -4.4795    1.0000 </r>
       <r>   -4.4043    1.0000 </r>
       <r>   -4.2534    1.0000 </r>
       <r>   -4.1248    1.0000 </r>
       <r>   -4.0725    1.0000 </r>
       <r>   -4.0401    1.0000 </r>
       <r>   -3.9675    1.0000 </r>
       <r>   -3.8964    1.0000 </r>
       <r>   -3.8340    1.0000 </r>
       <r>   -3.7813    1.0000 </r>
       <r>   -3.6914    1.0000 </r>
       <r>   -3.6588    1.0000 </r>
       <r>   -3.6396    1.0000 </r>
       <r>   -3.6167    1.0000 </r>
       <r>   -3.5819    1.0000 </r>
       <r>   -3.5696    1.0000 </r>
       <r>   -3.5158    1.0000 </r>
       <r>   -3.4512    1.0000 </r>
       <r>   -3.3326    1.0000 </r>
       <r>   -3.1338    1.0000 </r>
       <r>   -3.0177    1.0000 </r>
       <r>   -2.9484    1.0000 </r>
       <r>   -2.8969    1.0000 </r>
       <r>   -2.8578    1.0000 </r>
       <r>   -2.8193    1.0000 </r>
       <r>   -2.6938    1.0000 </r>
       <r>   -2.6138    1.0000 </r>
       <r>   -2.5283    1.0000 </r>
       <r>   -2.4380    1.0000 </r>
       <r>   -2.3638    1.0000 </r>
       <r>   -2.3357    1.0000 </r>
       <r>   -2.2745    1.0000 </r>
       <r>   -2.2387    1.0000 </r>
       <r>   -2.1730    1.0000 </r>
       <r>   -2.1148    1.0000 </r>
       <r>   -2.0467    1.0000 </r>
       <r>   -1.9707    1.0000 </r>
       <r>   -1.9323    1.0000 </r>
       <r>   -1.8820    1.0000 </r>
       <r>   -1.8067    1.0000 </r>
       <r>   -1.6991    1.0000 </r>
       <r>   -1.4527    1.0000 </r>
       <r>   -1.3220    1.0006 </r>
       <r>   -1.2530    1.0028 </r>
       <r>   -1.0999    1.0265 </r>
       <r>   -0.9168    0.9241 </r>
       <r>   -0.8710    0.7974 </r>
       <r>   -0.7057    0.1608 </r>
       <r>   -0.6734    0.0764 </r>
       <r>   -0.6043   -0.0196 </r>
       <r>   -0.5499   -0.0355 </r>
       <r>   -0.3989   -0.0085 </r>
       <r>   -0.3102   -0.0016 </r>
       <r>    0.7498   -0.0000 </r>
       <r>    1.0607   -0.0000 </r>
       <r>    1.3412   -0.0000 </r>
       <r>    1.6687   -0.0000 </r>
       <r>    1.8589   -0.0000 </r>
       <r>    2.0907   -0.0000 </r>
       <r>    2.4533   -0.0000 </r>
       <r>    3.5889   -0.0000 </r>
       <r>    3.6098   -0.0000 </r>
       <r>    4.0306   -0.0000 </r>
      </set>
      <set comment="kpoint 13">
       <r>   -8.5336    1.0000 </r>
       <r>   -8.1935    1.0000 </r>
       <r>   -7.4561    1.0000 </r>
       <r>   -7.2481    1.0000 </r>
       <r>   -6.6707    1.0000 </r>
       <r>   -6.6520    1.0000 </r>
       <r>   -6.5308    1.0000 </r>
       <r>   -6.4681    1.0000 </r>
       <r>   -6.4263    1.0000 </r>
       <r>   -6.3489    1.0000 </r>
       <r>   -6.3229    1.0000 </r>
       <r>   -6.1936    1.0000 </r>
       <r>   -6.1271    1.0000 </r>
       <r>   -6.0038    1.0000 </r>
       <r>   -5.8740    1.0000 </r>
       <r>   -5.7618    1.0000 </r>
       <r>   -5.6804    1.0000 </r>
       <r>   -5.6225    1.0000 </r>
       <r>   -5.5656    1.0000 </r>
       <r>   -5.4560    1.0000 </r>
       <r>   -5.3562    1.0000 </r>
       <r>   -5.2574    1.0000 </r>
       <r>   -5.2263    1.0000 </r>
       <r>   -5.1876    1.0000 </r>
       <r>   -5.0997    1.0000 </r>
       <r>   -5.0632    1.0000 </r>
       <r>   -4.9929    1.0000 </r>
       <r>   -4.9005    1.0000 </r>
       <r>   -4.7396    1.0000 </r>
       <r>   -4.6966    1.0000 </r>
       <r>   -4.6484    1.0000 </r>
       <r>   -4.5752    1.0000 </r>
       <r>   -4.5260    1.0000 </r>
       <r>   -4.4714    1.0000 </r>
       <r>   -4.4081    1.0000 </r>
       <r>   -4.2462    1.0000 </r>
       <r>   -4.1244    1.0000 </r>
       <r>   -4.0773    1.0000 </r>
       <r>   -4.0359    1.0000 </r>
       <r>   -3.9677    1.0000 </r>
       <r>   -3.8885    1.0000 </r>
       <r>   -3.8465    1.0000 </r>
[...]
       <r>   -4.4372    1.0000 </r>
       <r>   -4.4033    1.0000 </r>
       <r>   -4.3156    1.0000 </r>
       <r>   -4.2198    1.0000 </r>
       <r>   -4.1594    1.0000 </r>
       <r>   -4.1074    1.0000 </r>
       <r>   -4.0889    1.0000 </r>
       <r>   -4.0761    1.0000 </r>
       <r>   -3.9319    1.0000 </r>
       <r>   -3.8367    1.0000 </r>
       <r>   -3.7115    1.0000 </r>
       <r>   -3.7013    1.0000 </r>
       <r>   -3.6771    1.0000 </r>
       <r>   -3.6412    1.0000 </r>
       <r>   -3.6304    1.0000 </r>
       <r>   -3.5758    1.0000 </r>
       <r>   -3.5461    1.0000 </r>
       <r>   -3.3932    1.0000 </r>
       <r>   -3.2907    1.0000 </r>
       <r>   -3.1293    1.0000 </r>
       <r>   -2.9957    1.0000 </r>
       <r>   -2.9480    1.0000 </r>
       <r>   -2.8755    1.0000 </r>
       <r>   -2.8572    1.0000 </r>
       <r>   -2.7921    1.0000 </r>
       <r>   -2.6081    1.0000 </r>
       <r>   -2.5561    1.0000 </r>
       <r>   -2.5043    1.0000 </r>
       <r>   -2.4877    1.0000 </r>
       <r>   -2.4219    1.0000 </r>
       <r>   -2.3066    1.0000 </r>
       <r>   -2.1894    1.0000 </r>
       <r>   -2.1622    1.0000 </r>
       <r>   -2.1375    1.0000 </r>
       <r>   -2.0962    1.0000 </r>
       <r>   -1.9570    1.0000 </r>
       <r>   -1.9399    1.0000 </r>
       <r>   -1.9113    1.0000 </r>
       <r>   -1.8194    1.0000 </r>
       <r>   -1.7569    1.0000 </r>
       <r>   -1.6427    1.0000 </r>
       <r>   -1.4629    1.0000 </r>
       <r>   -1.3149    1.0007 </r>
       <r>   -1.2757    1.0018 </r>
       <r>   -1.1499    1.0154 </r>
       <r>   -0.9695    1.0064 </r>
       <r>   -0.8816    0.8312 </r>
       <r>   -0.8704    0.7954 </r>
       <r>   -0.7525    0.3249 </r>
       <r>   -0.6295    0.0033 </r>
       <r>   -0.4835   -0.0250 </r>
       <r>   -0.4350   -0.0144 </r>
       <r>   -0.3287   -0.0024 </r>
       <r>    0.2513   -0.0000 </r>
       <r>    0.4533   -0.0000 </r>
       <r>    1.4295   -0.0000 </r>
       <r>    1.5636   -0.0000 </r>
       <r>    1.5869   -0.0000 </r>
       <r>    2.3990   -0.0000 </r>
       <r>    3.1244   -0.0000 </r>
       <r>    3.4460   -0.0000 </r>
       <r>    3.9436   -0.0000 </r>
       <r>    4.0160   -0.0000 </r>
      </set>
     </set>
    </set>
   </array>
  </eigenvalues>
  <separator name="orbital magnetization" >
   <v name="MAGDIPOLOUT">      0.00000000      0.00000000      0.00000000</v>
  </separator>
  <dos>
   <i name="efermi">     -0.79497114 </i>
   <total>
    <array>
     <dimension dim="1">gridpoints</dimension>
     <dimension dim="2">spin</dimension>
     <field>energy</field>
     <field>total</field>
     <field>integrated</field>
     <set>
      <set comment="spin 1">
       <r>   -12.1851     0.0000     0.0000 </r>
       <r>   -12.1227     0.0000     0.0000 </r>
       <r>   -12.0604     0.0000     0.0000 </r>
       <r>   -11.9981     0.0000     0.0000 </r>
       <r>   -11.9357     0.0000     0.0000 </r>
       <r>   -11.8734     0.0000     0.0000 </r>
       <r>   -11.8111    -0.0000    -0.0000 </r>
       <r>   -11.7487    -0.0000    -0.0000 </r>
       <r>   -11.6864    -0.0000    -0.0000 </r>
       <r>   -11.6240    -0.0000    -0.0000 </r>
       <r>   -11.5617    -0.0000    -0.0000 </r>
       <r>   -11.4994    -0.0000    -0.0000 </r>
       <r>   -11.4370    -0.0000    -0.0000 </r>
       <r>   -11.3747    -0.0000    -0.0000 </r>
       <r>   -11.3124    -0.0000    -0.0000 </r>
       <r>   -11.2500    -0.0000    -0.0000 </r>
       <r>   -11.1877    -0.0000    -0.0000 </r>
       <r>   -11.1254    -0.0000    -0.0000 </r>
       <r>   -11.0630    -0.0000    -0.0000 </r>
       <r>   -11.0007    -0.0000    -0.0000 </r>
       <r>   -10.9383    -0.0000    -0.0000 </r>
       <r>   -10.8760    -0.0000    -0.0000 </r>
       <r>   -10.8137    -0.0000    -0.0000 </r>
       <r>   -10.7513    -0.0002    -0.0000 </r>
       <r>   -10.6890    -0.0010    -0.0001 </r>
       <r>   -10.6267    -0.0036    -0.0003 </r>
       <r>   -10.5643    -0.0099    -0.0009 </r>
       <r>   -10.5020    -0.0206    -0.0022 </r>
       <r>   -10.4397    -0.0283    -0.0040 </r>
       <r>   -10.3773    -0.0112    -0.0047 </r>
       <r>   -10.3150     0.0610    -0.0009 </r>
       <r>   -10.2526     0.2031     0.0118 </r>
       <r>   -10.1903     0.3942     0.0364 </r>
       <r>   -10.1280     0.5907     0.0732 </r>
       <r>   -10.0656     0.7583     0.1205 </r>
       <r>   -10.0033     0.8783     0.1752 </r>
       <r>    -9.9410     0.9330     0.2334 </r>
       <r>    -9.8786     0.9103     0.2901 </r>
       <r>    -9.8163     0.8300     0.3419 </r>
       <r>    -9.7540     0.7541     0.3889 </r>
       <r>    -9.6916     0.7581     0.4361 </r>
       <r>    -9.6293     0.8694     0.4903 </r>
       <r>    -9.5669     1.0202     0.5539 </r>
       <r>    -9.5046     1.0937     0.6221 </r>
       <r>    -9.4423     1.0394     0.6869 </r>
       <r>    -9.3799     0.9148     0.7439 </r>
       <r>    -9.3176     0.8041     0.7940 </r>
       <r>    -9.2553     0.7412     0.8402 </r>
       <r>    -9.1929     0.7346     0.8860 </r>
       <r>    -9.1306     0.8223     0.9373 </r>
       <r>    -9.0683     1.0399     1.0021 </r>
       <r>    -9.0059     1.3397     1.0856 </r>
       <r>    -8.9436     1.6010     1.1854 </r>
       <r>    -8.8812     1.7457     1.2943 </r>
       <r>    -8.8189     1.8054     1.4068 </r>
       <r>    -8.7566     1.8432     1.5217 </r>
       <r>    -8.6942     1.8541     1.6373 </r>
       <r>    -8.6319     1.7987     1.7494 </r>
       <r>    -8.5696     1.7152     1.8563 </r>
       <r>    -8.5072     1.7353     1.9645 </r>
       <r>    -8.4449     1.9662     2.0871 </r>
       <r>    -8.3825     2.3544     2.2338 </r>
       <r>    -8.3202     2.6819     2.4010 </r>
       <r>    -8.2579     2.7415     2.5719 </r>
       <r>    -8.1955     2.5365     2.7300 </r>
       <r>    -8.1332     2.2641     2.8712 </r>
       <r>    -8.0709     2.0976     3.0019 </r>
       <r>    -8.0085     2.0660     3.1307 </r>
       <r>    -7.9462     2.1797     3.2666 </r>
       <r>    -7.8839     2.5680     3.4267 </r>
       <r>    -7.8215     3.3542     3.6357 </r>
       <r>    -7.7592     4.3977     3.9099 </r>
       <r>    -7.6968     5.3124     4.2410 </r>
       <r>    -7.6345     5.8590     4.6063 </r>
       <r>    -7.5722     6.2423     4.9954 </r>
       <r>    -7.5098     6.8897     5.4249 </r>
       <r>    -7.4475     8.0068     5.9240 </r>
       <r>    -7.3852     9.4856     6.5153 </r>
       <r>    -7.3228    11.1114     7.2079 </r>
       <r>    -7.2605    12.6314     7.9953 </r>
       <r>    -7.1982    13.6993     8.8493 </r>
       <r>    -7.1358    13.9956     9.7217 </r>
       <r>    -7.0735    13.4879    10.5625 </r>
       <r>    -7.0111    12.5786    11.3466 </r>
       <r>    -6.9488    12.0010    12.0947 </r>
       <r>    -6.8865    12.4666    12.8719 </r>
       <r>    -6.8241    14.2372    13.7594 </r>
       <r>    -6.7618    16.9536    14.8162 </r>
       <r>    -6.6995    19.8921    16.0562 </r>
       <r>    -6.6371    22.4108    17.4532 </r>
       <r>    -6.5748    24.1585    18.9592 </r>
       <r>    -6.5125    24.9487    20.5144 </r>
       <r>    -6.4501    24.7015    22.0542 </r>
       <r>    -6.3878    23.6733    23.5299 </r>
       <r>    -6.3254    22.5288    24.9343 </r>
       <r>    -6.2631    21.8580    26.2968 </r>
       <r>    -6.2008    21.5962    27.6430 </r>
       <r>    -6.1384    21.0836    28.9573 </r>
       <r>    -6.0761    19.7463    30.1882 </r>
       <r>    -6.0138    17.6846    31.2906 </r>
       <r>    -5.9514    15.6266    32.2647 </r>
       <r>    -5.8891    14.3925    33.1619 </r>
       <r>    -5.8267    14.4048    34.0599 </r>
       <r>    -5.7644    15.5636    35.0301 </r>
       <r>    -5.7021    17.3800    36.1135 </r>
       <r>    -5.6397    19.1831    37.3093 </r>
       <r>    -5.5774    20.3766    38.5795 </r>
       <r>    -5.5151    20.6758    39.8683 </r>
       <r>    -5.4527    20.1827    41.1265 </r>
       <r>    -5.3904    19.3043    42.3298 </r>
       <r>    -5.3281    18.5923    43.4888 </r>
       <r>    -5.2657    18.4867    44.6412 </r>
       <r>    -5.2034    19.0595    45.8293 </r>
       <r>    -5.1410    20.0089    47.0766 </r>
       <r>    -5.0787    20.9084    48.3800 </r>
       <r>    -5.0164    21.4391    49.7164 </r>
       <r>    -4.9540    21.4969    51.0564 </r>
       <r>    -4.8917    21.2482    52.3810 </r>
       <r>    -4.8294    21.1043    53.6965 </r>
       <r>    -4.7670    21.5408    55.0393 </r>
       <r>    -4.7047    22.8359    56.4628 </r>
       <r>    -4.6424    24.8611    58.0126 </r>
       <r>    -4.5800    27.0143    59.6966 </r>
       <r>    -4.5177    28.4150    61.4679 </r>
       <r>    -4.4553    28.4555    63.2417 </r>
       <r>    -4.3930    27.4254    64.9513 </r>
       <r>    -4.3307    26.5188    66.6044 </r>
       <r>    -4.2683    26.9252    68.2828 </r>
       <r>    -4.2060    28.7761    70.0766 </r>
       <r>    -4.1437    31.0769    72.0138 </r>
       <r>    -4.0813    32.6998    74.0522 </r>
       <r>    -4.0190    33.3454    76.1309 </r>
       <r>    -3.9567    33.5340    78.2213 </r>
       <r>    -3.8943    33.8572    80.3318 </r>
       <r>    -3.8320    34.4126    82.4770 </r>
       <r>    -3.7696    34.8999    84.6525 </r>
       <r>    -3.7073    34.9976    86.8341 </r>
       <r>    -3.6450    34.4556    88.9820 </r>
       <r>    -3.5826    32.9684    91.0371 </r>
       <r>    -3.5203    30.3100    92.9265 </r>
       <r>    -3.4580    26.7121    94.5917 </r>
       <r>    -3.3956    22.8914    96.0186 </r>
       <r>    -3.3333    19.5832    97.2394 </r>
       <r>    -3.2710    17.1981    98.3115 </r>
       <r>    -3.2086    16.0002    99.3089 </r>
       <r>    -3.1463    16.3491   100.3280 </r>
       <r>    -3.0839    18.4591   101.4787 </r>
       <r>    -3.0216    21.9155   102.8448 </r>
       <r>    -2.9593    25.6151   104.4416 </r>
       <r>    -2.8969    28.2875   106.2049 </r>
       <r>    -2.8346    29.1190   108.0201 </r>
       <r>    -2.7723    28.0569   109.7691 </r>
       <r>    -2.7099    25.7795   111.3761 </r>
       <r>    -2.6476    23.3835   112.8337 </r>
       <r>    -2.5852    21.8066   114.1931 </r>
       <r>    -2.5229    21.3281   115.5226 </r>
       <r>    -2.4606    21.6113   116.8698 </r>
       <r>    -2.3982    22.1741   118.2520 </r>
       <r>    -2.3359    22.7593   119.6708 </r>
       <r>    -2.2736    23.3791   121.1281 </r>
       <r>    -2.2112    24.1496   122.6335 </r>
       <r>    -2.1489    25.0824   124.1971 </r>
       <r>    -2.0866    26.0546   125.8212 </r>
       <r>    -2.0242    26.9820   127.5032 </r>
       <r>    -1.9619    27.8348   129.2383 </r>
       <r>    -1.8995    28.3842   131.0077 </r>
       <r>    -1.8372    28.2005   132.7656 </r>
       <r>    -1.7749    27.1132   134.4558 </r>
       <r>    -1.7125    25.4845   136.0444 </r>
       <r>    -1.6502    23.8607   137.5318 </r>
       <r>    -1.5879    22.5319   138.9363 </r>
       <r>    -1.5255    21.5853   140.2819 </r>
       <r>    -1.4632    21.1954   141.6031 </r>
       <r>    -1.4009    21.5833   142.9486 </r>
       <r>    -1.3385    22.6795   144.3623 </r>
       <r>    -1.2762    24.0830   145.8636 </r>
       <r>    -1.2138    25.5001   147.4532 </r>
       <r>    -1.1515    27.0170   149.1373 </r>
       <r>    -1.0892    28.7383   150.9288 </r>
       <r>    -1.0268    30.3762   152.8223 </r>
       <r>    -0.9645    31.4304   154.7816 </r>
       <r>    -0.9022    31.5933   156.7510 </r>
       <r>    -0.8398    30.8364   158.6732 </r>
       <r>    -0.7775    29.3207   160.5010 </r>
       <r>    -0.7152    27.3212   162.2041 </r>
       <r>    -0.6528    25.0304   163.7644 </r>
       <r>    -0.5905    22.4496   165.1638 </r>
       <r>    -0.5281    19.7012   166.3919 </r>
       <r>    -0.4658    17.2791   167.4691 </r>
       <r>    -0.4035    15.5819   168.4404 </r>
       <r>    -0.3411    14.2925   169.3313 </r>
       <r>    -0.2788    12.6540   170.1201 </r>
       <r>    -0.2165    10.3760   170.7669 </r>
       <r>    -0.1541     7.9701   171.2638 </r>
       <r>    -0.0918     6.1904   171.6497 </r>
       <r>    -0.0295     5.3318   171.9820 </r>
       <r>     0.0329     5.0798   172.2987 </r>
       <r>     0.0952     4.9458   172.6070 </r>
       <r>     0.1576     4.7777   172.9048 </r>
       <r>     0.2199     4.7742   173.2024 </r>
       <r>     0.2822     5.0302   173.5160 </r>
       <r>     0.3446     5.2413   173.8427 </r>
       <r>     0.4069     4.9681   174.1524 </r>
       <r>     0.4692     4.1477   174.4110 </r>
       <r>     0.5316     3.2691   174.6147 </r>
       <r>     0.5939     3.0119   174.8025 </r>
       <r>     0.6563     3.6994   175.0331 </r>
       <r>     0.7186     5.0683   175.3490 </r>
       <r>     0.7809     6.4900   175.7536 </r>
       <r>     0.8433     7.3755   176.2134 </r>
       <r>     0.9056     7.4512   176.6778 </r>
       <r>     0.9679     6.8098   177.1023 </r>
       <r>     1.0303     5.7821   177.4628 </r>
       <r>     1.0926     4.7412   177.7583 </r>
       <r>     1.1549     3.9570   178.0050 </r>
       <r>     1.2173     3.5485   178.2262 </r>
       <r>     1.2796     3.5045   178.4447 </r>
       <r>     1.3420     3.7337   178.6774 </r>
       <r>     1.4043     4.1091   178.9336 </r>
       <r>     1.4666     4.4924   179.2136 </r>
       <r>     1.5290     4.7803   179.5116 </r>
       <r>     1.5913     4.9872   179.8225 </r>
       <r>     1.6536     5.2546   180.1500 </r>
       <r>     1.7160     5.6768   180.5039 </r>
       <r>     1.7783     6.0820   180.8830 </r>
       <r>     1.8406     6.0993   181.2632 </r>
       <r>     1.9030     5.5588   181.6098 </r>
       <r>     1.9653     4.7793   181.9077 </r>
       <r>     2.0277     4.3418   182.1783 </r>
       <r>     2.0900     4.5586   182.4625 </r>
       <r>     2.1523     5.2027   182.7868 </r>
       <r>     2.2147     5.7518   183.1454 </r>
       <r>     2.2770     5.8725   183.5114 </r>
       <r>     2.3393     5.6491   183.8636 </r>
       <r>     2.4017     5.3469   184.1969 </r>
       <r>     2.4640     5.0324   184.5106 </r>
       <r>     2.5263     4.5346   184.7933 </r>
       <r>     2.5887     3.7751   185.0286 </r>
       <r>     2.6510     3.0224   185.2170 </r>
       <r>     2.7134     2.7610   185.3891 </r>
       <r>     2.7757     3.3173   185.5959 </r>
       <r>     2.8380     4.5643   185.8804 </r>
       <r>     2.9004     5.9220   186.2496 </r>
       <r>     2.9627     6.6835   186.6662 </r>
       <r>     3.0250     6.4602   187.0689 </r>
       <r>     3.0874     5.4169   187.4066 </r>
       <r>     3.1497     4.1317   187.6641 </r>
       <r>     3.2121     3.2187   187.8648 </r>
       <r>     3.2744     2.9906   188.0512 </r>
       <r>     3.3367     3.3417   188.2595 </r>
       <r>     3.3991     3.8842   188.5016 </r>
       <r>     3.4614     4.2339   188.7656 </r>
       <r>     3.5237     4.2269   189.0291 </r>
       <r>     3.5861     3.9166   189.2732 </r>
       <r>     3.6484     3.4662   189.4893 </r>
       <r>     3.7107     3.1111   189.6832 </r>
       <r>     3.7731     3.0992   189.8764 </r>
       <r>     3.8354     3.4973   190.0944 </r>
       <r>     3.8978     4.0601   190.3475 </r>
       <r>     3.9601     4.3729   190.6201 </r>
       <r>     4.0224     4.1482   190.8787 </r>
       <r>     4.0848     3.4260   191.0923 </r>
       <r>     4.1471     2.5438   191.2508 </r>
       <r>     4.2094     1.9010   191.3693 </r>
       <r>     4.2718     1.6949   191.4750 </r>
       <r>     4.3341     1.8286   191.5890 </r>
       <r>     4.3964     2.0119   191.7144 </r>
       <r>     4.4588     1.9516   191.8360 </r>
       <r>     4.5211     1.5397   191.9320 </r>
       <r>     4.5835     0.9218   191.9895 </r>
       <r>     4.6458     0.3618   192.0120 </r>
       <r>     4.7081     0.0295   192.0139 </r>
       <r>     4.7705    -0.0823   192.0087 </r>
       <r>     4.8328    -0.0760   192.0040 </r>
       <r>     4.8951    -0.0413   192.0014 </r>
       <r>     4.9575    -0.0164   192.0004 </r>
       <r>     5.0198    -0.0051   192.0001 </r>
       <r>     5.0821    -0.0013   192.0000 </r>
       <r>     5.1445    -0.0003   192.0000 </r>
       <r>     5.2068    -0.0000   192.0000 </r>
       <r>     5.2692    -0.0000   192.0000 </r>
       <r>     5.3315    -0.0000   192.0000 </r>
       <r>     5.3938    -0.0000   192.0000 </r>
       <r>     5.4562    -0.0000   192.0000 </r>
       <r>     5.5185    -0.0000   192.0000 </r>
       <r>     5.5808    -0.0000   192.0000 </r>
       <r>     5.6432    -0.0000   192.0000 </r>
       <r>     5.7055    -0.0000   192.0000 </r>
       <r>     5.7678    -0.0000   192.0000 </r>
       <r>     5.8302     0.0000   192.0000 </r>
       <r>     5.8925     0.0000   192.0000 </r>
       <r>     5.9549     0.0000   192.0000 </r>
       <r>     6.0172     0.0000   192.0000 </r>
       <r>     6.0795     0.0000   192.0000 </r>
       <r>     6.1419     0.0000   192.0000 </r>
       <r>     6.2042     0.0000   192.0000 </r>
       <r>     6.2665     0.0000   192.0000 </r>
       <r>     6.3289     0.0000   192.0000 </r>
       <r>     6.3912     0.0000   192.0000 </r>
       <r>     6.4536     0.0000   192.0000 </r>
       <r>     6.5159     0.0000   192.0000 </r>
      </set>
     </set>
    </array>
   </total>
  </dos>
 </calculation>
 <structure name="finalpos" >
  <crystal>
   <varray name="basis" >
    <v>       5.55785930       0.00000000       0.00000000 </v>
    <v>       2.77892965       4.81324734       0.00000000 </v>
    <v>       0.00000000       0.00000000      30.80695967 </v>
   </varray>
   <i name="volume">    824.12780743 </i>
   <varray name="rec_basis" >
    <v>       0.17992539      -0.10387997       0.00000000 </v>
    <v>       0.00000000       0.20775994       0.00000000 </v>
    <v>       0.00000000       0.00000000       0.03246020 </v>
   </varray>
  </crystal>
  <varray name="positions" >
   <v>       0.00000000       0.00000000       0.38952237 </v>
   <v>       0.50000000       0.00000000       0.38952237 </v>
   <v>       0.00000000       0.50000000       0.38952237 </v>
   <v>       0.50000000       0.50000000       0.38952237 </v>
   <v>       0.16666667       0.16666667       0.46468540 </v>
   <v>       0.66666667       0.16666667       0.46468540 </v>
   <v>       0.16666667       0.66666667       0.46468540 </v>
   <v>       0.66666667       0.66666667       0.46468540 </v>
   <v>       0.33333333       0.33333333       0.53920296 </v>
   <v>       0.83333333       0.83333333       0.53920296 </v>
   <v>       0.33333333       0.83333333       0.53920296 </v>
   <v>       0.00000000       0.00000000       0.61486043 </v>
   <v>       0.50000000       0.00000000       0.61486043 </v>
   <v>       0.00000000       0.50000000       0.61486043 </v>
   <v>       0.50000000       0.50000000       0.61486043 </v>
   <v>       0.83333333       0.33333333       0.53920296 </v>
  </varray>
  <varray name="selective"  type="logical" >
   <v type="logical" >  F  F  F </v>
   <v type="logical" >  F  F  F </v>
   <v type="logical" >  F  F  F </v>
   <v type="logical" >  F  F  F </v>
   <v type="logical" >  T  T  T </v>
   <v type="logical" >  T  T  T </v>
   <v type="logical" >  T  T  T </v>
   <v type="logical" >  T  T  T </v>
   <v type="logical" >  T  T  T </v>
   <v type="logical" >  T  T  T </v>
   <v type="logical" >  T  T  T </v>
   <v type="logical" >  T  T  T </v>
   <v type="logical" >  T  T  T </v>
   <v type="logical" >  T  T  T </v>
   <v type="logical" >  T  T  T </v>
   <v type="logical" >  T  T  T </v>
  </varray>
  <nose>
   <v>      -3.00000000       0.00000000       0.00010000       0.00010000 </v>
  </nose>
 </structure>
</modeling>
