  17  17   0   0
  0.4847811E+02  0.5557859E-09  0.5557859E-09  0.3080696E-08  0.5000000E-15
  1.000000000000000E-004
  CAR 
 unknown system                          
      6.43668392    -12.11696583  301     -0.74619607      1.00000000
    -12.117  0.0000E+00  0.0000E+00
    -12.055  0.0000E+00  0.0000E+00
    -11.993  0.0000E+00  0.0000E+00
    -11.931  0.0000E+00  0.0000E+00
    -11.870  0.0000E+00  0.0000E+00
    -11.808  0.0000E+00  0.0000E+00
    -11.746 -0.3605E-28 -0.2229E-29
    -11.684 -0.4840E-26 -0.3015E-27
    -11.622 -0.5371E-24 -0.3352E-25
    -11.560 -0.4915E-22 -0.3073E-23
    -11.499 -0.3707E-20 -0.2323E-21
    -11.437 -0.2305E-18 -0.1449E-19
    -11.375 -0.1181E-16 -0.7446E-18
    -11.313 -0.4982E-15 -0.3155E-16
    -11.251 -0.1675E-13 -0.1068E-14
    -11.189 -0.4783E-12 -0.3065E-13
    -11.127 -0.1121E-10 -0.7241E-12
    -11.066 -0.2160E-09 -0.1408E-10
    -11.004 -0.3416E-08 -0.2253E-09
    -10.942 -0.4431E-07 -0.2965E-08
    -10.880 -0.4706E-06 -0.3207E-07
    -10.818 -0.4086E-05 -0.2848E-06
    -10.756 -0.2891E-04 -0.2073E-05
    -10.695 -0.1661E-03 -0.1235E-04
    -10.633 -0.7699E-03 -0.5996E-04
    -10.571 -0.2852E-02 -0.2363E-03
    -10.509 -0.8295E-02 -0.7493E-03
    -10.447 -0.1830E-01 -0.1881E-02
    -10.385 -0.2795E-01 -0.3610E-02
    -10.323 -0.1908E-01 -0.4790E-02
    -10.262  0.3777E-01 -0.2454E-02
    -10.200  0.1633E+00  0.7647E-02
    -10.138  0.3460E+00  0.2905E-01
    -10.076  0.5459E+00  0.6281E-01
    -10.014  0.7240E+00  0.1076E+00
     -9.952  0.8584E+00  0.1607E+00
     -9.891  0.9316E+00  0.2183E+00
     -9.829  0.9284E+00  0.2757E+00
     -9.767  0.8593E+00  0.3289E+00
     -9.705  0.7762E+00  0.3769E+00
     -9.643  0.7551E+00  0.4236E+00
     -9.581  0.8408E+00  0.4756E+00
     -9.519  0.9902E+00  0.5368E+00
     -9.458  0.1092E+01  0.6043E+00
     -9.396  0.1070E+01  0.6705E+00
     -9.334  0.9566E+00  0.7297E+00
     -9.272  0.8367E+00  0.7814E+00
     -9.210  0.7598E+00  0.8284E+00
     -9.148  0.7370E+00  0.8740E+00
     -9.087  0.7971E+00  0.9233E+00
     -9.025  0.9813E+00  0.9840E+00
     -8.963  0.1267E+01  0.1062E+01
     -8.901  0.1547E+01  0.1158E+01
     -8.839  0.1725E+01  0.1265E+01
     -8.777  0.1804E+01  0.1376E+01
     -8.715  0.1849E+01  0.1491E+01
     -8.654  0.1875E+01  0.1607E+01
     -8.592  0.1847E+01  0.1721E+01
     -8.530  0.1777E+01  0.1831E+01
     -8.468  0.1773E+01  0.1940E+01
     -8.406  0.1945E+01  0.2061E+01
     -8.344  0.2274E+01  0.2201E+01
     -8.283  0.2587E+01  0.2361E+01
     -8.221  0.2694E+01  0.2528E+01
     -8.159  0.2566E+01  0.2687E+01
     -8.097  0.2344E+01  0.2831E+01
     -8.035  0.2172E+01  0.2966E+01
     -7.973  0.2090E+01  0.3095E+01
     -7.911  0.2119E+01  0.3226E+01
     -7.850  0.2394E+01  0.3374E+01
     -7.788  0.3076E+01  0.3564E+01
     -7.726  0.4113E+01  0.3819E+01
     -7.664  0.5211E+01  0.4141E+01
     -7.602  0.6123E+01  0.4520E+01
     -7.540  0.6898E+01  0.4946E+01
     -7.479  0.7753E+01  0.5426E+01
     -7.417  0.8801E+01  0.5970E+01
     -7.355  0.1001E+02  0.6589E+01
     -7.293  0.1133E+02  0.7290E+01
     -7.231  0.1263E+02  0.8071E+01
     -7.169  0.1366E+02  0.8916E+01
     -7.107  0.1411E+02  0.9788E+01
     -7.046  0.1393E+02  0.1065E+02
     -6.984  0.1338E+02  0.1148E+02
     -6.922  0.1300E+02  0.1228E+02
     -6.860  0.1328E+02  0.1310E+02
     -6.798  0.1440E+02  0.1399E+02
     -6.736  0.1615E+02  0.1499E+02
     -6.675  0.1814E+02  0.1611E+02
     -6.613  0.2010E+02  0.1736E+02
     -6.551  0.2189E+02  0.1871E+02
     -6.489  0.2331E+02  0.2015E+02
     -6.427  0.2411E+02  0.2164E+02
     -6.365  0.2427E+02  0.2314E+02
     -6.303  0.2404E+02  0.2463E+02
     -6.242  0.2368E+02  0.2610E+02
     -6.180  0.2315E+02  0.2753E+02
     -6.118  0.2225E+02  0.2890E+02
     -6.056  0.2087E+02  0.3020E+02
     -5.994  0.1920E+02  0.3138E+02
     -5.932  0.1754E+02  0.3247E+02
     -5.871  0.1617E+02  0.3347E+02
     -5.809  0.1525E+02  0.3441E+02
     -5.747  0.1494E+02  0.3533E+02
     -5.685  0.1534E+02  0.3628E+02
     -5.623  0.1631E+02  0.3729E+02
     -5.561  0.1755E+02  0.3838E+02
     -5.499  0.1882E+02  0.3954E+02
     -5.438  0.2004E+02  0.4078E+02
     -5.376  0.2111E+02  0.4209E+02
     -5.314  0.2174E+02  0.4343E+02
     -5.252  0.2172E+02  0.4477E+02
     -5.190  0.2116E+02  0.4608E+02
     -5.128  0.2060E+02  0.4736E+02
     -5.067  0.2055E+02  0.4863E+02
     -5.005  0.2119E+02  0.4994E+02
     -4.943  0.2216E+02  0.5131E+02
     -4.881  0.2272E+02  0.5271E+02
     -4.819  0.2222E+02  0.5409E+02
     -4.757  0.2088E+02  0.5538E+02
     -4.696  0.1985E+02  0.5661E+02
     -4.634  0.2027E+02  0.5786E+02
     -4.572  0.2230E+02  0.5924E+02
     -4.510  0.2505E+02  0.6079E+02
     -4.448  0.2732E+02  0.6248E+02
     -4.386  0.2834E+02  0.6423E+02
     -4.324  0.2813E+02  0.6597E+02
     -4.263  0.2746E+02  0.6767E+02
     -4.201  0.2748E+02  0.6937E+02
     -4.139  0.2869E+02  0.7114E+02
     -4.077  0.3049E+02  0.7303E+02
     -4.015  0.3174E+02  0.7499E+02
     -3.953  0.3204E+02  0.7697E+02
     -3.892  0.3206E+02  0.7896E+02
     -3.830  0.3262E+02  0.8097E+02
     -3.768  0.3367E+02  0.8306E+02
     -3.706  0.3436E+02  0.8518E+02
     -3.644  0.3400E+02  0.8728E+02
     -3.582  0.3257E+02  0.8930E+02
     -3.520  0.3055E+02  0.9119E+02
     -3.459  0.2853E+02  0.9295E+02
     -3.397  0.2693E+02  0.9462E+02
     -3.335  0.2573E+02  0.9621E+02
     -3.273  0.2433E+02  0.9771E+02
     -3.211  0.2212E+02  0.9908E+02
     -3.149  0.1936E+02  0.1003E+03
     -3.088  0.1728E+02  0.1013E+03
     -3.026  0.1718E+02  0.1024E+03
     -2.964  0.1937E+02  0.1036E+03
     -2.902  0.2301E+02  0.1050E+03
     -2.840  0.2656E+02  0.1067E+03
     -2.778  0.2864E+02  0.1084E+03
     -2.716  0.2865E+02  0.1102E+03
     -2.655  0.2706E+02  0.1119E+03
     -2.593  0.2494E+02  0.1134E+03
     -2.531  0.2323E+02  0.1149E+03
     -2.469  0.2232E+02  0.1163E+03
     -2.407  0.2216E+02  0.1176E+03
     -2.345  0.2251E+02  0.1190E+03
     -2.284  0.2307E+02  0.1204E+03
     -2.222  0.2351E+02  0.1219E+03
     -2.160  0.2371E+02  0.1234E+03
     -2.098  0.2390E+02  0.1248E+03
     -2.036  0.2454E+02  0.1264E+03
     -1.974  0.2584E+02  0.1280E+03
     -1.912  0.2750E+02  0.1297E+03
     -1.851  0.2881E+02  0.1314E+03
     -1.789  0.2909E+02  0.1332E+03
     -1.727  0.2809E+02  0.1350E+03
     -1.665  0.2618E+02  0.1366E+03
     -1.603  0.2409E+02  0.1381E+03
     -1.541  0.2245E+02  0.1395E+03
     -1.480  0.2154E+02  0.1408E+03
     -1.418  0.2141E+02  0.1421E+03
     -1.356  0.2202E+02  0.1435E+03
     -1.294  0.2319E+02  0.1449E+03
     -1.232  0.2452E+02  0.1464E+03
     -1.170  0.2585E+02  0.1480E+03
     -1.108  0.2743E+02  0.1497E+03
     -1.047  0.2942E+02  0.1516E+03
     -0.985  0.3133E+02  0.1535E+03
     -0.923  0.3238E+02  0.1555E+03
     -0.861  0.3224E+02  0.1575E+03
     -0.799  0.3123E+02  0.1594E+03
     -0.737  0.2965E+02  0.1613E+03
     -0.676  0.2742E+02  0.1629E+03
     -0.614  0.2465E+02  0.1645E+03
     -0.552  0.2186E+02  0.1658E+03
     -0.490  0.1946E+02  0.1670E+03
     -0.428  0.1720E+02  0.1681E+03
     -0.366  0.1468E+02  0.1690E+03
     -0.304  0.1207E+02  0.1697E+03
     -0.243  0.1002E+02  0.1704E+03
     -0.181  0.8859E+01  0.1709E+03
     -0.119  0.8328E+01  0.1714E+03
     -0.057  0.7836E+01  0.1719E+03
      0.005  0.7036E+01  0.1723E+03
      0.067  0.6021E+01  0.1727E+03
      0.128  0.5106E+01  0.1730E+03
      0.190  0.4496E+01  0.1733E+03
      0.252  0.4181E+01  0.1736E+03
      0.314  0.4084E+01  0.1738E+03
      0.376  0.4196E+01  0.1741E+03
      0.438  0.4593E+01  0.1744E+03
      0.500  0.5331E+01  0.1747E+03
      0.561  0.6269E+01  0.1751E+03
      0.623  0.6979E+01  0.1755E+03
      0.685  0.7000E+01  0.1760E+03
      0.747  0.6285E+01  0.1763E+03
      0.809  0.5289E+01  0.1767E+03
      0.871  0.4569E+01  0.1770E+03
      0.932  0.4388E+01  0.1772E+03
      0.994  0.4683E+01  0.1775E+03
      1.056  0.5210E+01  0.1778E+03
      1.118  0.5616E+01  0.1782E+03
      1.180  0.5550E+01  0.1785E+03
      1.242  0.4911E+01  0.1788E+03
      1.304  0.3996E+01  0.1791E+03
      1.365  0.3345E+01  0.1793E+03
      1.427  0.3399E+01  0.1795E+03
      1.489  0.4190E+01  0.1798E+03
      1.551  0.5289E+01  0.1801E+03
      1.613  0.6123E+01  0.1805E+03
      1.675  0.6464E+01  0.1809E+03
      1.736  0.6524E+01  0.1813E+03
      1.798  0.6500E+01  0.1817E+03
      1.860  0.6238E+01  0.1820E+03
      1.922  0.5509E+01  0.1824E+03
      1.984  0.4477E+01  0.1827E+03
      2.046  0.3656E+01  0.1829E+03
      2.107  0.3419E+01  0.1831E+03
      2.169  0.3697E+01  0.1833E+03
      2.231  0.4161E+01  0.1836E+03
      2.293  0.4592E+01  0.1839E+03
      2.355  0.5053E+01  0.1842E+03
      2.417  0.5719E+01  0.1845E+03
      2.479  0.6546E+01  0.1849E+03
      2.540  0.7115E+01  0.1854E+03
      2.602  0.6958E+01  0.1858E+03
      2.664  0.6088E+01  0.1862E+03
      2.726  0.5076E+01  0.1865E+03
      2.788  0.4483E+01  0.1868E+03
      2.850  0.4349E+01  0.1871E+03
      2.911  0.4312E+01  0.1873E+03
      2.973  0.4110E+01  0.1876E+03
      3.035  0.3862E+01  0.1878E+03
      3.097  0.3853E+01  0.1880E+03
      3.159  0.4153E+01  0.1883E+03
      3.221  0.4472E+01  0.1886E+03
      3.283  0.4448E+01  0.1889E+03
      3.344  0.4040E+01  0.1891E+03
      3.406  0.3539E+01  0.1893E+03
      3.468  0.3216E+01  0.1895E+03
      3.530  0.3072E+01  0.1897E+03
      3.592  0.2957E+01  0.1899E+03
      3.654  0.2811E+01  0.1901E+03
      3.715  0.2721E+01  0.1902E+03
      3.777  0.2815E+01  0.1904E+03
      3.839  0.3110E+01  0.1906E+03
      3.901  0.3449E+01  0.1908E+03
      3.963  0.3589E+01  0.1910E+03
      4.025  0.3401E+01  0.1913E+03
      4.087  0.2974E+01  0.1914E+03
      4.148  0.2501E+01  0.1916E+03
      4.210  0.2089E+01  0.1917E+03
      4.272  0.1703E+01  0.1918E+03
      4.334  0.1282E+01  0.1919E+03
      4.396  0.8457E+00  0.1920E+03
      4.458  0.4751E+00  0.1920E+03
      4.519  0.2197E+00  0.1920E+03
      4.581  0.7093E-01  0.1920E+03
      4.643 -0.2173E-02  0.1920E+03
      4.705 -0.2697E-01  0.1920E+03
      4.767 -0.2552E-01  0.1920E+03
      4.829 -0.1550E-01  0.1920E+03
      4.891 -0.6978E-02  0.1920E+03
      4.952 -0.2433E-02  0.1920E+03
      5.014 -0.6704E-03  0.1920E+03
      5.076 -0.1477E-03  0.1920E+03
      5.138 -0.2621E-04  0.1920E+03
      5.200 -0.3767E-05  0.1920E+03
      5.262 -0.4402E-06  0.1920E+03
      5.323 -0.4195E-07  0.1920E+03
      5.385 -0.3267E-08  0.1920E+03
      5.447 -0.2083E-09  0.1920E+03
      5.509 -0.1089E-10  0.1920E+03
      5.571 -0.4670E-12  0.1920E+03
      5.633 -0.1638E-13  0.1920E+03
      5.695 -0.4488E-15  0.1920E+03
      5.756  0.0000E+00  0.1920E+03
      5.818  0.0000E+00  0.1920E+03
      5.880  0.0000E+00  0.1920E+03
      5.942  0.0000E+00  0.1920E+03
      6.004  0.0000E+00  0.1920E+03
      6.066  0.0000E+00  0.1920E+03
      6.127  0.0000E+00  0.1920E+03
      6.189  0.0000E+00  0.1920E+03
      6.251  0.0000E+00  0.1920E+03
      6.313  0.0000E+00  0.1920E+03
      6.375  0.0000E+00  0.1920E+03
      6.437  0.0000E+00  0.1920E+03
