   16   16    1    1
  0.5150799E+02  0.5557859E-09  0.5557859E-09  0.3080696E-08  0.5000000E-15
  1.000000000000000E-004
  CAR 
 unknown system                          
    160     52     96
 
  0.6250000E-01  0.6250000E-01  0.0000000E+00  0.2083333E-01
    1      -10.193303   1.000000
    2       -8.921930   1.000000
    3       -7.857790   1.000000
    4       -7.739957   1.000000
    5       -7.464917   1.000000
    6       -7.442786   1.000000
    7       -7.433560   1.000000
    8       -7.311447   1.000000
    9       -7.298936   1.000000
   10       -7.285673   1.000000
   11       -6.841742   1.000000
   12       -6.833049   1.000000
   13       -6.828215   1.000000
   14       -6.796672   1.000000
   15       -6.785524   1.000000
   16       -6.596418   1.000000
   17       -6.561779   1.000000
   18       -6.540102   1.000000
   19       -6.482554   1.000000
   20       -5.803719   1.000000
   21       -5.793097   1.000000
   22       -5.686951   1.000000
   23       -4.934990   1.000000
   24       -4.916955   1.000000
   25       -4.810632   1.000000
   26       -4.682380   1.000000
   27       -4.667599   1.000000
   28       -4.653790   1.000000
   29       -4.611993   1.000000
   30       -4.529651   1.000000
   31       -4.374974   1.000000
   32       -4.330438   1.000000
   33       -4.211081   1.000000
   34       -4.200749   1.000000
   35       -4.057599   1.000000
   36       -4.030973   1.000000
   37       -3.998894   1.000000
   38       -3.982318   1.000000
   39       -3.956403   1.000000
   40       -3.849960   1.000000
   41       -3.717424   1.000000
   42       -3.687062   1.000000
   43       -3.504371   1.000000
   44       -3.475479   1.000000
   45       -3.394055   1.000000
   46       -3.193758   1.000000
   47       -3.120832   1.000000
   48       -2.957344   1.000000
   49       -2.894387   1.000000
   50       -2.824546   1.000000
   51       -2.716864   1.000000
   52       -2.359582   1.000000
   53       -2.345316   1.000000
   54       -2.143591   1.000000
   55       -2.116808   1.000000
   56       -1.877487   1.000000
   57       -1.816081   1.000000
   58       -1.707188   1.000000
   59       -1.660586   1.000000
   60       -1.590851   1.000000
   61       -1.535522   1.000002
   62       -1.489370   1.000010
   63       -1.316985   1.001123
   64       -1.181605   1.013310
   65       -1.138440   1.022418
   66       -1.098142   1.031304
   67       -1.064202   1.035409
   68       -1.003096   1.017339
   69       -0.949568   0.948838
   70       -0.901360   0.828423
   71       -0.821523   0.524909
   72       -0.786806   0.379415
   73       -0.772003   0.320168
   74       -0.744866   0.220327
   75       -0.709264   0.112916
   76       -0.703820   0.099201
   77       -0.670072   0.030792
   78       -0.533732  -0.031419
   79       -0.526488  -0.029988
   80       -0.495442  -0.023021
   81       -0.367116  -0.003382
   82       -0.199366  -0.000059
   83       -0.083576  -0.000001
   84       -0.011581  -0.000000
   85        0.027152  -0.000000
   86        0.066115  -0.000000
   87        0.319788  -0.000000
   88        0.444662  -0.000000
   89        1.194863  -0.000000
   90        1.484302  -0.000000
   91        1.623888  -0.000000
   92        1.625871  -0.000000
   93        1.729024  -0.000000
   94        1.804041  -0.000000
   95        2.575067  -0.000000
   96        2.587341  -0.000000
 
 -0.6250000E-01  0.1040834E-16  0.0000000E+00  0.1041667E-01
    1      -10.193300   1.000000
    2       -8.921930   1.000000
    3       -7.857792   1.000000
    4       -7.739947   1.000000
    5       -7.465531   1.000000
    6       -7.439346   1.000000
    7       -7.436343   1.000000
    8       -7.310997   1.000000
    9       -7.299242   1.000000
   10       -7.285834   1.000000
   11       -6.841638   1.000000
   12       -6.834914   1.000000
   13       -6.826319   1.000000
   14       -6.797873   1.000000
   15       -6.784152   1.000000
   16       -6.598759   1.000000
   17       -6.564408   1.000000
   18       -6.532513   1.000000
   19       -6.485543   1.000000
   20       -5.802181   1.000000
   21       -5.794413   1.000000
   22       -5.687199   1.000000
   23       -4.928440   1.000000
   24       -4.923042   1.000000
   25       -4.810594   1.000000
   26       -4.690450   1.000000
   27       -4.661434   1.000000
   28       -4.652683   1.000000
   29       -4.612117   1.000000
   30       -4.529063   1.000000
   31       -4.375088   1.000000
   32       -4.330402   1.000000
   33       -4.213290   1.000000
   34       -4.199058   1.000000
   35       -4.055911   1.000000
   36       -4.033344   1.000000
   37       -3.990982   1.000000
   38       -3.985707   1.000000
   39       -3.960174   1.000000
   40       -3.847811   1.000000
   41       -3.717713   1.000000
   42       -3.687633   1.000000
   43       -3.508367   1.000000
   44       -3.473761   1.000000
   45       -3.393440   1.000000
   46       -3.170603   1.000000
   47       -3.150355   1.000000
   48       -2.941609   1.000000
   49       -2.922340   1.000000
   50       -2.782082   1.000000
   51       -2.740502   1.000000
   52       -2.354226   1.000000
   53       -2.352188   1.000000
   54       -2.130334   1.000000
   55       -2.122070   1.000000
   56       -1.850513   1.000000
   57       -1.848612   1.000000
   58       -1.692796   1.000000
   59       -1.661848   1.000000
   60       -1.586903   1.000000
   61       -1.567551   1.000001
   62       -1.510552   1.000005
   63       -1.284463   1.002258
   64       -1.155134   1.018656
   65       -1.119245   1.026839
   66       -1.109723   1.028947
   67       -1.037831   1.033142
   68       -1.024236   1.029034
   69       -1.002074   1.016585
   70       -0.910248   0.854953
   71       -0.809143   0.472555
   72       -0.796833   0.420835
   73       -0.752608   0.247431
   74       -0.743425   0.215418
   75       -0.705679   0.103801
   76       -0.699747   0.089429
   77       -0.679513   0.047081
   78       -0.533331  -0.031344
   79       -0.519310  -0.028463
   80       -0.494533  -0.022811
   81       -0.353581  -0.002591
   82       -0.197404  -0.000056
   83       -0.110934  -0.000004
   84       -0.027372  -0.000000
   85        0.029081  -0.000000
   86        0.073163  -0.000000
   87        0.369421  -0.000000
   88        0.408691  -0.000000
   89        1.193663  -0.000000
   90        1.486342  -0.000000
   91        1.611886  -0.000000
   92        1.635550  -0.000000
   93        1.764209  -0.000000
   94        1.770008  -0.000000
   95        2.580366  -0.000000
   96        2.583086  -0.000000
 
  0.1875000E+00  0.6250000E-01  0.0000000E+00  0.2083333E-01
    1       -9.989269   1.000000
    2       -8.720381   1.000000
    3       -7.652440   1.000000
    4       -7.546161   1.000000
    5       -7.446080   1.000000
    6       -7.367678   1.000000
    7       -7.249955   1.000000
    8       -7.228909   1.000000
    9       -7.181107   1.000000
   10       -7.113847   1.000000
   11       -6.750193   1.000000
   12       -6.734988   1.000000
   13       -6.721680   1.000000
   14       -6.716672   1.000000
   15       -6.646730   1.000000
   16       -6.496516   1.000000
   17       -6.435674   1.000000
   18       -6.375331   1.000000
   19       -6.314518   1.000000
   20       -5.740041   1.000000
   21       -5.734061   1.000000
   22       -5.633846   1.000000
   23       -4.971248   1.000000
   24       -4.917766   1.000000
   25       -4.850141   1.000000
   26       -4.737689   1.000000
   27       -4.664215   1.000000
   28       -4.593667   1.000000
   29       -4.582334   1.000000
   30       -4.547440   1.000000
   31       -4.480910   1.000000
   32       -4.219482   1.000000
   33       -4.181149   1.000000
   34       -4.136147   1.000000
   35       -4.107383   1.000000
   36       -4.036972   1.000000
   37       -4.012743   1.000000
   38       -3.983390   1.000000
   39       -3.936632   1.000000
   40       -3.871955   1.000000
   41       -3.797227   1.000000
   42       -3.663436   1.000000
   43       -3.612302   1.000000
   44       -3.559205   1.000000
   45       -3.542522   1.000000
   46       -3.472450   1.000000
   47       -3.306125   1.000000
   48       -3.137595   1.000000
   49       -2.961823   1.000000
   50       -2.815992   1.000000
   51       -2.697926   1.000000
   52       -2.478357   1.000000
   53       -2.436259   1.000000
   54       -2.294907   1.000000
   55       -2.177454   1.000000
   56       -2.028010   1.000000
   57       -2.005746   1.000000
   58       -1.920886   1.000000
   59       -1.850065   1.000000
   60       -1.819003   1.000000
   61       -1.777592   1.000000
   62       -1.710715   1.000000
   63       -1.619193   1.000000
   64       -1.588884   1.000000
   65       -1.520025   1.000004
   66       -1.442333   1.000043
   67       -1.282113   1.002369
   68       -1.217275   1.007785
   69       -1.145334   1.020841
   70       -1.087294   1.033181
   71       -1.040347   1.033655
   72       -1.026221   1.029785
   73       -0.971180   0.984130
   74       -0.946600   0.943106
   75       -0.881002   0.760901
   76       -0.839089   0.598497
   77       -0.811986   0.484570
   78       -0.760825   0.277462
   79       -0.732031   0.178193
   80       -0.648092   0.000925
   81       -0.548233  -0.033799
   82       -0.457646  -0.014821
   83       -0.410764  -0.007384
   84       -0.304707  -0.000904
   85       -0.193707  -0.000050
   86        0.177057  -0.000000
   87        0.266884  -0.000000
   88        0.803563  -0.000000
   89        0.841289  -0.000000
   90        1.092796  -0.000000
   91        1.282325  -0.000000
   92        1.614083  -0.000000
   93        2.135416  -0.000000
   94        2.515590  -0.000000
   95        3.007491  -0.000000
   96        3.361420  -0.000000
 
  0.1250000E+00  0.1875000E+00  0.0000000E+00  0.2083333E-01
    1       -9.989290   1.000000
    2       -8.720384   1.000000
    3       -7.652429   1.000000
    4       -7.546199   1.000000
    5       -7.446026   1.000000
    6       -7.368244   1.000000
    7       -7.249862   1.000000
    8       -7.229487   1.000000
    9       -7.180796   1.000000
   10       -7.113432   1.000000
   11       -6.749997   1.000000
   12       -6.731778   1.000000
   13       -6.722453   1.000000
   14       -6.719981   1.000000
   15       -6.646482   1.000000
   16       -6.487924   1.000000
   17       -6.442001   1.000000
   18       -6.383240   1.000000
   19       -6.307853   1.000000
   20       -5.747868   1.000000
   21       -5.728054   1.000000
   22       -5.631826   1.000000
   23       -4.981334   1.000000
   24       -4.907826   1.000000
   25       -4.852521   1.000000
   26       -4.725659   1.000000
   27       -4.668703   1.000000
   28       -4.591417   1.000000
   29       -4.584122   1.000000
   30       -4.556156   1.000000
   31       -4.477172   1.000000
   32       -4.214566   1.000000
   33       -4.182154   1.000000
   34       -4.142784   1.000000
   35       -4.104897   1.000000
   36       -4.045778   1.000000
   37       -4.020833   1.000000
   38       -3.987272   1.000000
   39       -3.924400   1.000000
   40       -3.867825   1.000000
   41       -3.791509   1.000000
   42       -3.657083   1.000000
   43       -3.633981   1.000000
   44       -3.553713   1.000000
   45       -3.528135   1.000000
   46       -3.477208   1.000000
   47       -3.304248   1.000000
   48       -3.114621   1.000000
   49       -2.986364   1.000000
   50       -2.836025   1.000000
   51       -2.673317   1.000000
   52       -2.483991   1.000000
   53       -2.426101   1.000000
   54       -2.349592   1.000000
   55       -2.142114   1.000000
   56       -2.045391   1.000000
   57       -1.988983   1.000000
   58       -1.936307   1.000000
   59       -1.848917   1.000000
   60       -1.803276   1.000000
   61       -1.721773   1.000000
   62       -1.711603   1.000000
   63       -1.650217   1.000000
   64       -1.560825   1.000001
   65       -1.542392   1.000002
   66       -1.442184   1.000044
   67       -1.293354   1.001877
   68       -1.227729   1.006543
   69       -1.161885   1.017207
   70       -1.099634   1.031018
   71       -1.057943   1.035431
   72       -0.993103   1.009145
   73       -0.970309   0.982920
   74       -0.927012   0.899733
   75       -0.856809   0.670199
   76       -0.846957   0.630757
   77       -0.830365   0.562149
   78       -0.782578   0.362226
   79       -0.698741   0.087079
   80       -0.653827   0.007678
   81       -0.591060  -0.033628
   82       -0.470518  -0.017447
   83       -0.364053  -0.003187
   84       -0.297992  -0.000774
   85       -0.195980  -0.000053
   86        0.175487  -0.000000
   87        0.258988  -0.000000
   88        0.807381  -0.000000
   89        0.842358  -0.000000
   90        1.091448  -0.000000
   91        1.280294  -0.000000
   92        1.615455  -0.000000
   93        2.134086  -0.000000
   94        2.516223  -0.000000
   95        3.007650  -0.000000
   96        3.362690  -0.000000
 
 -0.6250000E-01  0.1250000E+00  0.0000000E+00  0.2083333E-01
    1       -9.989278   1.000000
    2       -8.720383   1.000000
    3       -7.652431   1.000000
    4       -7.546165   1.000000
    5       -7.446132   1.000000
    6       -7.367875   1.000000
    7       -7.250029   1.000000
    8       -7.229106   1.000000
    9       -7.180787   1.000000
   10       -7.113750   1.000000
   11       -6.750078   1.000000
   12       -6.732583   1.000000
   13       -6.725724   1.000000
   14       -6.714566   1.000000
   15       -6.648164   1.000000
   16       -6.493225   1.000000
   17       -6.433477   1.000000
   18       -6.384585   1.000000
   19       -6.309652   1.000000
   20       -5.745567   1.000000
   21       -5.729293   1.000000
   22       -5.633015   1.000000
   23       -4.977643   1.000000
   24       -4.911515   1.000000
   25       -4.851338   1.000000
   26       -4.729156   1.000000
   27       -4.668065   1.000000
   28       -4.596488   1.000000
   29       -4.582329   1.000000
   30       -4.549246   1.000000
   31       -4.480001   1.000000
   32       -4.218154   1.000000
   33       -4.181353   1.000000
   34       -4.134016   1.000000
   35       -4.110485   1.000000
   36       -4.041376   1.000000
   37       -4.008513   1.000000
   38       -3.991989   1.000000
   39       -3.932866   1.000000
   40       -3.868708   1.000000
   41       -3.795744   1.000000
   42       -3.653000   1.000000
   43       -3.626918   1.000000
   44       -3.555400   1.000000
   45       -3.538894   1.000000
   46       -3.480807   1.000000
   47       -3.286377   1.000000
   48       -3.151902   1.000000
   49       -2.954355   1.000000
   50       -2.833686   1.000000
   51       -2.685572   1.000000
   52       -2.475088   1.000000
   53       -2.439357   1.000000
   54       -2.317763   1.000000
   55       -2.162726   1.000000
   56       -2.029320   1.000000
   57       -2.007490   1.000000
   58       -1.894965   1.000000
   59       -1.875925   1.000000
   60       -1.813461   1.000000
   61       -1.764204   1.000000
   62       -1.698890   1.000000
   63       -1.645309   1.000000
   64       -1.569123   1.000001
   65       -1.523877   1.000003
   66       -1.452040   1.000033
   67       -1.281844   1.002382
   68       -1.205756   1.009347
   69       -1.159734   1.017663
   70       -1.076810   1.034551
   71       -1.059093   1.035449
   72       -1.029285   1.030838
   73       -0.965665   0.976176
   74       -0.954291   0.957509
   75       -0.861392   0.688116
   76       -0.838119   0.594483
   77       -0.803435   0.448489
   78       -0.767416   0.302401
   79       -0.741888   0.210230
   80       -0.640724  -0.006738
   81       -0.566913  -0.035404
   82       -0.482176  -0.019994
   83       -0.370589  -0.003614
   84       -0.306639  -0.000945
   85       -0.186467  -0.000040
   86        0.173520  -0.000000
   87        0.258144  -0.000000
   88        0.810688  -0.000000
   89        0.839249  -0.000000
   90        1.093573  -0.000000
   91        1.280579  -0.000000
   92        1.614621  -0.000000
   93        2.134188  -0.000000
   94        2.516104  -0.000000
   95        3.007595  -0.000000
   96        3.361467  -0.000000
 
  0.3125000E+00  0.6250000E-01  0.0000000E+00  0.2083333E-01
    1       -9.535498   1.000000
    2       -8.284439   1.000000
    3       -7.544439   1.000000
    4       -7.224361   1.000000
    5       -7.131997   1.000000
    6       -7.121027   1.000000
    7       -7.105644   1.000000
    8       -6.909595   1.000000
    9       -6.881064   1.000000
   10       -6.804591   1.000000
   11       -6.671413   1.000000
   12       -6.514753   1.000000
   13       -6.498179   1.000000
   14       -6.455135   1.000000
   15       -6.347465   1.000000
   16       -6.292168   1.000000
   17       -6.132965   1.000000
   18       -6.035304   1.000000
   19       -5.939015   1.000000
   20       -5.608465   1.000000
   21       -5.587052   1.000000
   22       -5.523300   1.000000
   23       -5.106155   1.000000
   24       -5.051386   1.000000
   25       -4.958443   1.000000
   26       -4.858735   1.000000
   27       -4.790776   1.000000
   28       -4.731315   1.000000
   29       -4.538303   1.000000
   30       -4.482987   1.000000
   31       -4.428189   1.000000
   32       -4.299147   1.000000
   33       -4.268295   1.000000
   34       -4.240725   1.000000
   35       -4.143923   1.000000
   36       -4.085197   1.000000
   37       -4.024765   1.000000
   38       -3.933879   1.000000
   39       -3.894783   1.000000
   40       -3.876442   1.000000
   41       -3.837641   1.000000
   42       -3.824045   1.000000
   43       -3.795613   1.000000
   44       -3.774545   1.000000
   45       -3.661473   1.000000
   46       -3.539760   1.000000
   47       -3.443672   1.000000
   48       -3.254144   1.000000
   49       -3.062384   1.000000
   50       -3.008488   1.000000
   51       -2.873439   1.000000
   52       -2.804090   1.000000
   53       -2.737086   1.000000
   54       -2.683614   1.000000
   55       -2.605465   1.000000
   56       -2.585990   1.000000
   57       -2.523272   1.000000
   58       -2.475140   1.000000
   59       -2.421297   1.000000
   60       -2.337502   1.000000
   61       -2.230867   1.000000
   62       -2.155383   1.000000
   63       -1.966053   1.000000
   64       -1.937334   1.000000
   65       -1.902039   1.000000
   66       -1.805673   1.000000
   67       -1.681303   1.000000
   68       -1.611243   1.000000
   69       -1.590248   1.000000
   70       -1.527881   1.000003
   71       -1.479574   1.000014
   72       -1.400220   1.000143
   73       -1.283778   1.002290
   74       -1.237978   1.005481
   75       -1.157351   1.018175
   76       -1.114813   1.027834
   77       -1.080626   1.034112
   78       -0.990306   1.006509
   79       -0.899684   0.823211
   80       -0.834691   0.580237
   81       -0.794721   0.412048
   82       -0.727622   0.164578
   83       -0.628398  -0.017173
   84       -0.508575  -0.026054
   85       -0.503916  -0.024982
   86        0.303057  -0.000000
   87        0.363470  -0.000000
   88        0.543618  -0.000000
   89        0.927051  -0.000000
   90        1.708537  -0.000000
   91        1.886381  -0.000000
   92        1.907653  -0.000000
   93        2.297461  -0.000000
   94        2.660285  -0.000000
   95        3.225287  -0.000000
   96        3.907946  -0.000000
 
  0.2500000E+00  0.3125000E+00  0.0000000E+00  0.2083333E-01
    1       -9.535570   1.000000
    2       -8.284456   1.000000
    3       -7.544531   1.000000
    4       -7.224326   1.000000
    5       -7.135368   1.000000
    6       -7.118697   1.000000
    7       -7.106009   1.000000
    8       -6.911175   1.000000
    9       -6.879473   1.000000
   10       -6.804028   1.000000
   11       -6.671338   1.000000
   12       -6.516093   1.000000
   13       -6.496164   1.000000
   14       -6.455383   1.000000
   15       -6.342788   1.000000
   16       -6.295774   1.000000
   17       -6.129106   1.000000
   18       -6.048710   1.000000
   19       -5.927994   1.000000
   20       -5.623155   1.000000
   21       -5.578721   1.000000
   22       -5.516825   1.000000
   23       -5.113336   1.000000
   24       -5.051645   1.000000
   25       -4.953242   1.000000
   26       -4.850892   1.000000
   27       -4.798810   1.000000
   28       -4.726061   1.000000
   29       -4.531977   1.000000
   30       -4.484948   1.000000
   31       -4.436116   1.000000
   32       -4.291616   1.000000
   33       -4.280580   1.000000
   34       -4.256455   1.000000
   35       -4.135401   1.000000
   36       -4.088663   1.000000
   37       -4.010237   1.000000
   38       -3.942372   1.000000
   39       -3.906204   1.000000
   40       -3.872886   1.000000
   41       -3.830711   1.000000
   42       -3.822828   1.000000
   43       -3.789764   1.000000
   44       -3.780064   1.000000
   45       -3.634228   1.000000
   46       -3.530346   1.000000
   47       -3.462713   1.000000
   48       -3.251894   1.000000
   49       -3.085626   1.000000
   50       -3.005403   1.000000
   51       -2.888389   1.000000
   52       -2.788150   1.000000
   53       -2.735896   1.000000
   54       -2.680174   1.000000
   55       -2.604170   1.000000
   56       -2.589815   1.000000
   57       -2.543716   1.000000
   58       -2.487965   1.000000
   59       -2.405031   1.000000
   60       -2.336337   1.000000
   61       -2.191301   1.000000
   62       -2.112067   1.000000
   63       -2.067555   1.000000
   64       -1.907295   1.000000
   65       -1.859157   1.000000
   66       -1.826579   1.000000
   67       -1.720777   1.000000
   68       -1.606580   1.000000
   69       -1.551169   1.000001
   70       -1.530752   1.000003
   71       -1.466641   1.000021
   72       -1.396379   1.000158
   73       -1.282608   1.002345
   74       -1.266180   1.003252
   75       -1.205367   1.009403
   76       -1.121656   1.026291
   77       -1.023797   1.028861
   78       -0.985019   1.001098
   79       -0.919067   0.879381
   80       -0.819516   0.516428
   81       -0.757821   0.266338
   82       -0.738011   0.197373
   83       -0.662486   0.019245
   84       -0.552561  -0.034343
   85       -0.460303  -0.015345
   86        0.303298  -0.000000
   87        0.365226  -0.000000
   88        0.540524  -0.000000
   89        0.928917  -0.000000
   90        1.690262  -0.000000
   91        1.904736  -0.000000
   92        1.923964  -0.000000
   93        2.279668  -0.000000
   94        2.658814  -0.000000
   95        3.228425  -0.000000
   96        3.908161  -0.000000
 
 -0.6250000E-01  0.2500000E+00  0.0000000E+00  0.2083333E-01
    1       -9.535548   1.000000
    2       -8.284457   1.000000
    3       -7.544515   1.000000
    4       -7.224292   1.000000
    5       -7.135368   1.000000
    6       -7.118629   1.000000
    7       -7.105898   1.000000
    8       -6.910854   1.000000
    9       -6.879493   1.000000
   10       -6.803960   1.000000
   11       -6.671166   1.000000
   12       -6.514919   1.000000
   13       -6.498919   1.000000
   14       -6.453931   1.000000
   15       -6.349064   1.000000
   16       -6.289158   1.000000
   17       -6.128942   1.000000
   18       -6.050359   1.000000
   19       -5.927494   1.000000
   20       -5.623389   1.000000
   21       -5.578364   1.000000
   22       -5.517345   1.000000
   23       -5.114432   1.000000
   24       -5.049754   1.000000
   25       -4.953475   1.000000
   26       -4.851801   1.000000
   27       -4.797663   1.000000
   28       -4.726022   1.000000
   29       -4.533931   1.000000
   30       -4.489141   1.000000
   31       -4.431834   1.000000
   32       -4.298472   1.000000
   33       -4.276392   1.000000
   34       -4.247404   1.000000
   35       -4.137599   1.000000
   36       -4.089234   1.000000
   37       -4.013320   1.000000
   38       -3.932166   1.000000
   39       -3.903947   1.000000
   40       -3.882021   1.000000
   41       -3.836641   1.000000
   42       -3.814781   1.000000
   43       -3.791855   1.000000
   44       -3.780857   1.000000
   45       -3.637206   1.000000
   46       -3.535050   1.000000
   47       -3.463624   1.000000
   48       -3.250709   1.000000
   49       -3.075190   1.000000
   50       -3.003889   1.000000
   51       -2.891330   1.000000
   52       -2.796553   1.000000
   53       -2.722269   1.000000
   54       -2.692767   1.000000
   55       -2.603871   1.000000
   56       -2.586814   1.000000
   57       -2.529778   1.000000
   58       -2.486913   1.000000
   59       -2.390680   1.000000
   60       -2.357445   1.000000
   61       -2.204392   1.000000
   62       -2.131399   1.000000
   63       -2.031835   1.000000
   64       -1.923726   1.000000
   65       -1.874748   1.000000
   66       -1.827026   1.000000
   67       -1.690117   1.000000
   68       -1.619712   1.000000
   69       -1.563698   1.000001
   70       -1.517496   1.000004
   71       -1.479773   1.000014
   72       -1.366231   1.000347
   73       -1.277450   1.002603
   74       -1.268372   1.003116
   75       -1.214837   1.008098
   76       -1.129108   1.024576
   77       -1.031957   1.031655
   78       -0.983734   0.999697
   79       -0.919663   0.880962
   80       -0.817666   0.508600
   81       -0.763595   0.287854
   82       -0.729101   0.169095
   83       -0.649012   0.001961
   84       -0.561193  -0.035133
   85       -0.462448  -0.015775
   86        0.303230  -0.000000
   87        0.364274  -0.000000
   88        0.541598  -0.000000
   89        0.929945  -0.000000
   90        1.690314  -0.000000
   91        1.893633  -0.000000
   92        1.933928  -0.000000
   93        2.279319  -0.000000
   94        2.660219  -0.000000
   95        3.227261  -0.000000
   96        3.908141  -0.000000
 
  0.4375000E+00  0.6250000E-01  0.0000000E+00  0.2083333E-01
    1       -8.896137   1.000000
    2       -7.910709   1.000000
    3       -7.722362   1.000000
    4       -7.147130   1.000000
    5       -6.783743   1.000000
    6       -6.772311   1.000000
    7       -6.616331   1.000000
    8       -6.565830   1.000000
    9       -6.556963   1.000000
   10       -6.544653   1.000000
   11       -6.486173   1.000000
   12       -6.247716   1.000000
   13       -6.185122   1.000000
   14       -6.081815   1.000000
   15       -6.058738   1.000000
   16       -5.990612   1.000000
   17       -5.842033   1.000000
   18       -5.686900   1.000000
   19       -5.550745   1.000000
   20       -5.447009   1.000000
   21       -5.384627   1.000000
   22       -5.351377   1.000000
   23       -5.307664   1.000000
   24       -5.199066   1.000000
   25       -5.057760   1.000000
   26       -5.036812   1.000000
   27       -4.983867   1.000000
   28       -4.784371   1.000000
   29       -4.731481   1.000000
   30       -4.689312   1.000000
   31       -4.653922   1.000000
   32       -4.513083   1.000000
   33       -4.460100   1.000000
   34       -4.407429   1.000000
   35       -4.344352   1.000000
   36       -4.238195   1.000000
   37       -4.150358   1.000000
   38       -4.078857   1.000000
   39       -3.980985   1.000000
   40       -3.905267   1.000000
   41       -3.810425   1.000000
   42       -3.773796   1.000000
   43       -3.728728   1.000000
   44       -3.705690   1.000000
   45       -3.625130   1.000000
   46       -3.598860   1.000000
   47       -3.557885   1.000000
   48       -3.484458   1.000000
   49       -3.375900   1.000000
   50       -3.342343   1.000000
   51       -3.310224   1.000000
   52       -3.225255   1.000000
   53       -3.173448   1.000000
   54       -3.026355   1.000000
   55       -2.983852   1.000000
   56       -2.954240   1.000000
   57       -2.866931   1.000000
   58       -2.775113   1.000000
   59       -2.758603   1.000000
   60       -2.553017   1.000000
   61       -2.460932   1.000000
   62       -2.391067   1.000000
   63       -2.357757   1.000000
   64       -2.288834   1.000000
   65       -2.244092   1.000000
   66       -2.151043   1.000000
   67       -2.062597   1.000000
   68       -1.973280   1.000000
   69       -1.938419   1.000000
   70       -1.888683   1.000000
   71       -1.863338   1.000000
   72       -1.803478   1.000000
   73       -1.662015   1.000000
   74       -1.488830   1.000010
   75       -1.320375   1.001041
   76       -1.243493   1.004968
   77       -1.218717   1.007604
   78       -1.141735   1.021661
   79       -0.944228   0.938367
   80       -0.837620   0.592411
   81       -0.795090   0.413581
   82       -0.776073   0.336181
   83       -0.679313   0.046715
   84       -0.528747  -0.030448
   85       -0.502628  -0.024685
   86       -0.215433  -0.000093
   87        0.684768  -0.000000
   88        1.017435  -0.000000
   89        1.056100  -0.000000
   90        1.803451  -0.000000
   91        1.953517  -0.000000
   92        2.053514  -0.000000
   93        2.469724  -0.000000
   94        3.028499  -0.000000
   95        3.568809  -0.000000
   96        4.000045  -0.000000
 
  0.3750000E+00  0.4375000E+00  0.0000000E+00  0.2083333E-01
    1       -8.896326   1.000000
    2       -7.911010   1.000000
    3       -7.722258   1.000000
    4       -7.146394   1.000000
    5       -6.784111   1.000000
    6       -6.775187   1.000000
    7       -6.623953   1.000000
    8       -6.575225   1.000000
    9       -6.547756   1.000000
   10       -6.534707   1.000000
   11       -6.485802   1.000000
   12       -6.247204   1.000000
   13       -6.186032   1.000000
   14       -6.080003   1.000000
   15       -6.057048   1.000000
   16       -5.992467   1.000000
   17       -5.843499   1.000000
   18       -5.693635   1.000000
   19       -5.536983   1.000000
   20       -5.441549   1.000000