   16   16    1    1
  0.5150799E+02  0.5557859E-09  0.5557859E-09  0.3080696E-08  0.5000000E-15
  1.000000000000000E-004
  CAR 
 unknown system                          
    160     52     96
 
  0.6250000E-01  0.6250000E-01  0.0000000E+00  0.2083333E-01
    1      -10.185078   1.000000
    2       -8.912021   1.000000
    3       -7.857587   1.000000
    4       -7.715692   1.000000
    5       -7.448660   1.000000
    6       -7.424298   1.000000
    7       -7.412172   1.000000
    8       -7.306061   1.000000
    9       -7.283194   1.000000
   10       -7.256960   1.000000
   11       -6.821885   1.000000
   12       -6.808567   1.000000
   13       -6.799577   1.000000
   14       -6.789330   1.000000
   15       -6.780272   1.000000
   16       -6.594149   1.000000
   17       -6.551643   1.000000
   18       -6.542705   1.000000
   19       -6.489856   1.000000
   20       -5.796800   1.000000
   21       -5.775126   1.000000
   22       -5.674476   1.000000
   23       -4.943303   1.000000
   24       -4.920877   1.000000
   25       -4.807278   1.000000
   26       -4.661266   1.000000
   27       -4.640094   1.000000
   28       -4.633671   1.000000
   29       -4.568294   1.000000
   30       -4.507363   1.000000
   31       -4.322933   1.000000
   32       -4.281748   1.000000
   33       -4.166199   1.000000
   34       -4.149831   1.000000
   35       -4.049171   1.000000
   36       -4.007676   1.000000
   37       -3.988100   1.000000
   38       -3.932797   1.000000
   39       -3.895727   1.000000
   40       -3.856302   1.000000
   41       -3.768574   1.000000
   42       -3.752187   1.000000
   43       -3.506379   1.000000
   44       -3.467045   1.000000
   45       -3.409941   1.000000
   46       -3.182089   1.000000
   47       -3.087521   1.000000
   48       -2.941100   1.000000
   49       -2.903226   1.000000
   50       -2.814793   1.000000
   51       -2.717056   1.000000
   52       -2.329998   1.000000
   53       -2.315218   1.000000
   54       -2.105723   1.000000
   55       -2.079396   1.000000
   56       -1.858364   1.000000
   57       -1.809008   1.000000
   58       -1.732110   1.000000
   59       -1.680419   1.000000
   60       -1.595845   1.000000
   61       -1.574301   1.000000
   62       -1.544573   1.000001
   63       -1.323419   1.000599
   64       -1.166287   1.012353
   65       -1.134200   1.018716
   66       -1.069870   1.032663
   67       -1.023700   1.034329
   68       -1.008833   1.030905
   69       -0.936087   0.961806
   70       -0.897636   0.877328
   71       -0.823145   0.617913
   72       -0.807265   0.551911
   73       -0.780165   0.437539
   74       -0.715864   0.192534
   75       -0.692413   0.122959
   76       -0.626004  -0.000645
   77       -0.575862  -0.032412
   78       -0.536937  -0.034855
   79       -0.373548  -0.005570
   80       -0.364438  -0.004734
   81       -0.294204  -0.001138
   82       -0.218961  -0.000180
   83       -0.183066  -0.000067
   84       -0.158225  -0.000032
   85       -0.073365  -0.000002
   86        0.039343  -0.000000
   87        0.307309  -0.000000
   88        0.387051  -0.000000
   89        1.243123  -0.000000
   90        1.495375  -0.000000
   91        1.652170  -0.000000
   92        1.671720  -0.000000
   93        1.743830  -0.000000
   94        1.819375  -0.000000
   95        2.614485  -0.000000
   96        2.649077  -0.000000
 
  0.0000000E+00  0.6250000E-01  0.0000000E+00  0.1041667E-01
    1      -10.185079   1.000000
    2       -8.912028   1.000000
    3       -7.857628   1.000000
    4       -7.715718   1.000000
    5       -7.449081   1.000000
    6       -7.420567   1.000000
    7       -7.415460   1.000000
    8       -7.308375   1.000000
    9       -7.276129   1.000000
   10       -7.261738   1.000000
   11       -6.822629   1.000000
   12       -6.810936   1.000000
   13       -6.796889   1.000000
   14       -6.790949   1.000000
   15       -6.777654   1.000000
   16       -6.595281   1.000000
   17       -6.555124   1.000000
   18       -6.537259   1.000000
   19       -6.491223   1.000000
   20       -5.795297   1.000000
   21       -5.776211   1.000000
   22       -5.674987   1.000000
   23       -4.936823   1.000000
   24       -4.926969   1.000000
   25       -4.807132   1.000000
   26       -4.658864   1.000000
   27       -4.646440   1.000000
   28       -4.631918   1.000000
   29       -4.565731   1.000000
   30       -4.507228   1.000000
   31       -4.326338   1.000000
   32       -4.279000   1.000000
   33       -4.161512   1.000000
   34       -4.153972   1.000000
   35       -4.032142   1.000000
   36       -4.028546   1.000000
   37       -3.980809   1.000000
   38       -3.938096   1.000000
   39       -3.890398   1.000000
   40       -3.862570   1.000000
   41       -3.771394   1.000000
   42       -3.748647   1.000000
   43       -3.507373   1.000000
   44       -3.466199   1.000000
   45       -3.410741   1.000000
   46       -3.142447   1.000000
   47       -3.135877   1.000000
   48       -2.928851   1.000000
   49       -2.915688   1.000000
   50       -2.775807   1.000000
   51       -2.745135   1.000000
   52       -2.330925   1.000000
   53       -2.312142   1.000000
   54       -2.106213   1.000000
   55       -2.075011   1.000000
   56       -1.839570   1.000000
   57       -1.833427   1.000000
   58       -1.738660   1.000000
   59       -1.682337   1.000000
   60       -1.587936   1.000000
   61       -1.584030   1.000000
   62       -1.531536   1.000001
   63       -1.337099   1.000429
   64       -1.145308   1.016355
   65       -1.120619   1.021765
   66       -1.115060   1.023045
   67       -1.032855   1.035256
   68       -1.012192   1.031910
   69       -0.909948   0.908424
   70       -0.863486   0.771914
   71       -0.840064   0.685530
   72       -0.812849   0.575312
   73       -0.757658   0.345123
   74       -0.724317   0.220714
   75       -0.690109   0.116844
   76       -0.625044  -0.001679
   77       -0.603278  -0.020263
   78       -0.531124  -0.034252
   79       -0.380404  -0.006274
   80       -0.353162  -0.003843
   81       -0.292729  -0.001101
   82       -0.208671  -0.000136
   83       -0.196564  -0.000098
   84       -0.162026  -0.000036
   85       -0.077600  -0.000002
   86        0.042013  -0.000000
   87        0.332177  -0.000000
   88        0.363461  -0.000000
   89        1.240373  -0.000000
   90        1.498135  -0.000000
   91        1.640404  -0.000000
   92        1.684662  -0.000000
   93        1.777406  -0.000000
   94        1.787654  -0.000000
   95        2.622922  -0.000000
   96        2.636242  -0.000000
 
  0.1875000E+00  0.6250000E-01  0.0000000E+00  0.2083333E-01
    1       -9.980576   1.000000
    2       -8.710447   1.000000
    3       -7.653689   1.000000
    4       -7.519857   1.000000
    5       -7.428547   1.000000
    6       -7.350273   1.000000
    7       -7.231087   1.000000
    8       -7.212927   1.000000
    9       -7.167706   1.000000
   10       -7.089560   1.000000
   11       -6.739105   1.000000
   12       -6.711348   1.000000
   13       -6.699370   1.000000
   14       -6.694475   1.000000
   15       -6.640120   1.000000
   16       -6.485322   1.000000
   17       -6.436223   1.000000
   18       -6.378577   1.000000
   19       -6.313576   1.000000
   20       -5.741594   1.000000
   21       -5.712305   1.000000
   22       -5.618715   1.000000
   23       -4.981518   1.000000
   24       -4.906053   1.000000
   25       -4.842779   1.000000
   26       -4.718762   1.000000
   27       -4.638487   1.000000
   28       -4.578295   1.000000
   29       -4.544568   1.000000
   30       -4.522540   1.000000
   31       -4.422693   1.000000
   32       -4.172847   1.000000
   33       -4.140417   1.000000
   34       -4.136337   1.000000
   35       -4.063348   1.000000
   36       -4.026269   1.000000
   37       -3.983482   1.000000
   38       -3.977781   1.000000
   39       -3.883170   1.000000
   40       -3.841976   1.000000
   41       -3.815348   1.000000
   42       -3.667718   1.000000
   43       -3.622460   1.000000
   44       -3.604353   1.000000
   45       -3.544444   1.000000
   46       -3.465264   1.000000
   47       -3.277601   1.000000
   48       -3.125393   1.000000
   49       -2.951548   1.000000
   50       -2.828786   1.000000
   51       -2.680190   1.000000
   52       -2.450272   1.000000
   53       -2.407029   1.000000
   54       -2.318762   1.000000
   55       -2.140243   1.000000
   56       -2.026021   1.000000
   57       -1.978258   1.000000
   58       -1.936144   1.000000
   59       -1.861045   1.000000
   60       -1.835506   1.000000
   61       -1.764386   1.000000
   62       -1.737061   1.000000
   63       -1.651664   1.000000
   64       -1.595944   1.000000
   65       -1.513516   1.000002
   66       -1.443694   1.000022
   67       -1.284198   1.001468
   68       -1.223757   1.004886
   69       -1.154320   1.014557
   70       -1.070666   1.032530
   71       -1.056596   1.034504
   72       -0.989788   1.022225
   73       -0.937170   0.963653
   74       -0.909572   0.907531
   75       -0.859357   0.757419
   76       -0.810641   0.566079
   77       -0.774900   0.415542
   78       -0.723166   0.216786
   79       -0.697922   0.138114
   80       -0.571585  -0.033393
   81       -0.555155  -0.035353
   82       -0.451013  -0.017693
   83       -0.377186  -0.005935
   84       -0.325592  -0.002233
   85       -0.304116  -0.001417
   86        0.193601  -0.000000
   87        0.244413  -0.000000
   88        0.829755  -0.000000
   89        0.859932  -0.000000
   90        1.106723  -0.000000
   91        1.285479  -0.000000
   92        1.611361  -0.000000
   93        2.172679  -0.000000
   94        2.512352  -0.000000
   95        3.044908  -0.000000
   96        3.388491  -0.000000
 
  0.1250000E+00  0.1875000E+00  0.0000000E+00  0.2083333E-01
    1       -9.980582   1.000000
    2       -8.710484   1.000000
    3       -7.653901   1.000000
    4       -7.519986   1.000000
    5       -7.428733   1.000000
    6       -7.349190   1.000000
    7       -7.231691   1.000000
    8       -7.215524   1.000000
    9       -7.162180   1.000000
   10       -7.092753   1.000000
   11       -6.739541   1.000000
   12       -6.712935   1.000000
   13       -6.704930   1.000000
   14       -6.688765   1.000000
   15       -6.637149   1.000000
   16       -6.486422   1.000000
   17       -6.433629   1.000000
   18       -6.381186   1.000000
   19       -6.313421   1.000000
   20       -5.738319   1.000000
   21       -5.713203   1.000000
   22       -5.621518   1.000000
   23       -4.971689   1.000000
   24       -4.917288   1.000000
   25       -4.842506   1.000000
   26       -4.711305   1.000000
   27       -4.636514   1.000000
   28       -4.575628   1.000000
   29       -4.563522   1.000000
   30       -4.504886   1.000000
   31       -4.432850   1.000000
   32       -4.171371   1.000000
   33       -4.141192   1.000000
   34       -4.127408   1.000000
   35       -4.067713   1.000000
   36       -4.018382   1.000000
   37       -4.000287   1.000000
   38       -3.972498   1.000000
   39       -3.875887   1.000000
   40       -3.847498   1.000000
   41       -3.819526   1.000000
   42       -3.671150   1.000000
   43       -3.617828   1.000000
   44       -3.608686   1.000000
   45       -3.549238   1.000000
   46       -3.457700   1.000000
   47       -3.279429   1.000000
   48       -3.124302   1.000000
   49       -2.948146   1.000000
   50       -2.819956   1.000000
   51       -2.689022   1.000000
   52       -2.440474   1.000000
   53       -2.417684   1.000000
   54       -2.301914   1.000000
   55       -2.147312   1.000000
   56       -2.036986   1.000000
   57       -1.998184   1.000000
   58       -1.903504   1.000000
   59       -1.863324   1.000000
   60       -1.829706   1.000000
   61       -1.788876   1.000000
   62       -1.736110   1.000000
   63       -1.658744   1.000000
   64       -1.577839   1.000000
   65       -1.527293   1.000001
   66       -1.450845   1.000018
   67       -1.285207   1.001436
   68       -1.204805   1.006798
   69       -1.111495   1.023870
   70       -1.077760   1.031251
   71       -1.063825   1.033597
   72       -0.992946   1.024044
   73       -0.924420   0.940088
   74       -0.910533   0.909809
   75       -0.884232   0.839197
   76       -0.825988   0.629508
   77       -0.772508   0.405610
   78       -0.731714   0.246603
   79       -0.698220   0.138955
   80       -0.579315  -0.031460
   81       -0.560232  -0.035028
   82       -0.441741  -0.015766
   83       -0.371433  -0.005366
   84       -0.331726  -0.002529
   85       -0.292499  -0.001096
   86        0.199763  -0.000000
   87        0.241043  -0.000000
   88        0.836255  -0.000000
   89        0.853173  -0.000000
   90        1.105876  -0.000000
   91        1.286125  -0.000000
   92        1.612422  -0.000000
   93        2.172626  -0.000000
   94        2.512311  -0.000000
   95        3.044722  -0.000000
   96        3.387764  -0.000000
 
 -0.6250000E-01  0.1250000E+00  0.0000000E+00  0.2083333E-01
    1       -9.980586   1.000000
    2       -8.710512   1.000000
    3       -7.654073   1.000000
    4       -7.520153   1.000000
    5       -7.428127   1.000000
    6       -7.349529   1.000000
    7       -7.232415   1.000000
    8       -7.215505   1.000000
    9       -7.159379   1.000000
   10       -7.095012   1.000000
   11       -6.739356   1.000000
   12       -6.716590   1.000000
   13       -6.698823   1.000000
   14       -6.694248   1.000000
   15       -6.632655   1.000000
   16       -6.489250   1.000000
   17       -6.433567   1.000000
   18       -6.377608   1.000000
   19       -6.315737   1.000000
   20       -5.731766   1.000000
   21       -5.718535   1.000000
   22       -5.622974   1.000000
   23       -4.967344   1.000000
   24       -4.920060   1.000000
   25       -4.844443   1.000000
   26       -4.711672   1.000000
   27       -4.624686   1.000000
   28       -4.580070   1.000000
   29       -4.570251   1.000000
   30       -4.503744   1.000000
   31       -4.434631   1.000000
   32       -4.164586   1.000000
   33       -4.138447   1.000000
   34       -4.125629   1.000000
   35       -4.077393   1.000000
   36       -4.013753   1.000000
   37       -3.999223   1.000000
   38       -3.968714   1.000000
   39       -3.890155   1.000000
   40       -3.845929   1.000000
   41       -3.823310   1.000000
   42       -3.672142   1.000000
   43       -3.610804   1.000000
   44       -3.601821   1.000000
   45       -3.563051   1.000000
   46       -3.443049   1.000000
   47       -3.298588   1.000000
   48       -3.113088   1.000000
   49       -2.950764   1.000000
   50       -2.804872   1.000000
   51       -2.700444   1.000000
   52       -2.445335   1.000000
   53       -2.408340   1.000000
   54       -2.290915   1.000000
   55       -2.159497   1.000000
   56       -2.043495   1.000000
   57       -1.996988   1.000000
   58       -1.900122   1.000000
   59       -1.860469   1.000000
   60       -1.836788   1.000000
   61       -1.785813   1.000000
   62       -1.750621   1.000000
   63       -1.638366   1.000000
   64       -1.587350   1.000000
   65       -1.535551   1.000001
   66       -1.444226   1.000022
   67       -1.282147   1.001535
   68       -1.215609   1.005648
   69       -1.133232   1.018928
   70       -1.072483   1.032217
   71       -1.038077   1.035445
   72       -0.983926   1.018406
   73       -0.940759   0.969572
   74       -0.898307   0.879122
   75       -0.872346   0.801816
   76       -0.793517   0.493847
   77       -0.777426   0.426076
   78       -0.757034   0.342634
   79       -0.712131   0.180591
   80       -0.600783  -0.021843
   81       -0.523406  -0.033196
   82       -0.425587  -0.012694
   83       -0.407969  -0.009806
   84       -0.332324  -0.002560
   85       -0.294621  -0.001149
   86        0.194463  -0.000000
   87        0.252394  -0.000000
   88        0.827538  -0.000000
   89        0.855709  -0.000000
   90        1.107785  -0.000000
   91        1.292759  -0.000000
   92        1.610629  -0.000000
   93        2.171755  -0.000000
   94        2.512218  -0.000000
   95        3.044896  -0.000000
   96        3.387172  -0.000000
 
  0.3125000E+00  0.6250000E-01  0.0000000E+00  0.2083333E-01
    1       -9.525840   1.000000
    2       -8.274376   1.000000
    3       -7.529249   1.000000
    4       -7.226147   1.000000
    5       -7.111562   1.000000
    6       -7.100078   1.000000
    7       -7.084980   1.000000
    8       -6.889013   1.000000
    9       -6.866994   1.000000
   10       -6.779748   1.000000
   11       -6.666452   1.000000
   12       -6.490326   1.000000
   13       -6.471031   1.000000
   14       -6.430546   1.000000
   15       -6.332622   1.000000
   16       -6.290250   1.000000
   17       -6.120284   1.000000
   18       -6.037461   1.000000
   19       -5.926704   1.000000
   20       -5.619257   1.000000
   21       -5.570562   1.000000
   22       -5.504942   1.000000
   23       -5.096790   1.000000
   24       -5.028626   1.000000
   25       -4.947087   1.000000
   26       -4.828237   1.000000
   27       -4.802856   1.000000
   28       -4.683250   1.000000
   29       -4.520694   1.000000
   30       -4.444731   1.000000
   31       -4.402753   1.000000
   32       -4.284962   1.000000
   33       -4.253171   1.000000
   34       -4.211037   1.000000
   35       -4.126674   1.000000
   36       -4.071894   1.000000
   37       -4.015261   1.000000
   38       -3.943247   1.000000
   39       -3.892467   1.000000
   40       -3.852419   1.000000
   41       -3.813675   1.000000
   42       -3.791985   1.000000
   43       -3.775214   1.000000
   44       -3.732915   1.000000
   45       -3.613616   1.000000
   46       -3.499418   1.000000
   47       -3.452571   1.000000
   48       -3.289516   1.000000
   49       -3.061970   1.000000
   50       -2.989831   1.000000
   51       -2.881201   1.000000
   52       -2.789135   1.000000
   53       -2.731519   1.000000
   54       -2.679465   1.000000
   55       -2.596552   1.000000
   56       -2.588349   1.000000
   57       -2.545828   1.000000
   58       -2.503877   1.000000
   59       -2.469804   1.000000
   60       -2.372393   1.000000
   61       -2.206923   1.000000
   62       -2.114044   1.000000
   63       -2.068737   1.000000
   64       -1.906961   1.000000
   65       -1.890883   1.000000
   66       -1.831473   1.000000
   67       -1.670705   1.000000
   68       -1.592156   1.000000
   69       -1.563958   1.000000
   70       -1.506442   1.000003
   71       -1.425577   1.000039
   72       -1.381243   1.000136
   73       -1.282531   1.001522
   74       -1.219112   1.005310
   75       -1.148515   1.015703
   76       -1.101802   1.026106
   77       -1.041139   1.035452
   78       -0.990743   1.022792
   79       -0.911470   0.912004
   80       -0.842848   0.696291
   81       -0.788762   0.473741
   82       -0.707158   0.165182
   83       -0.627087   0.000544
   84       -0.585411  -0.029403
   85       -0.358267  -0.004228
   86        0.302739  -0.000000
   87        0.383235  -0.000000
   88        0.564891  -0.000000
   89        0.921420  -0.000000
   90        1.743343  -0.000000
   91        1.892194  -0.000000
   92        1.927935  -0.000000
   93        2.279748  -0.000000
   94        2.681518  -0.000000
   95        3.207135  -0.000000
   96        3.931198  -0.000000
 
  0.2500000E+00  0.3125000E+00  0.0000000E+00  0.2083333E-01
    1       -9.525851   1.000000
    2       -8.274444   1.000000
    3       -7.529249   1.000000
    4       -7.226476   1.000000
    5       -7.111109   1.000000
    6       -7.098673   1.000000
    7       -7.086850   1.000000
    8       -6.889222   1.000000
    9       -6.866007   1.000000
   10       -6.780209   1.000000
   11       -6.666741   1.000000
   12       -6.488822   1.000000
   13       -6.475467   1.000000
   14       -6.429086   1.000000
   15       -6.335430   1.000000
   16       -6.283497   1.000000
   17       -6.121710   1.000000
   18       -6.039143   1.000000
   19       -5.926120   1.000000
   20       -5.619165   1.000000
   21       -5.566872   1.000000
   22       -5.509220   1.000000
   23       -5.091615   1.000000
   24       -5.025547   1.000000
   25       -4.955624   1.000000
   26       -4.826115   1.000000
   27       -4.797772   1.000000
   28       -4.683450   1.000000
   29       -4.507325   1.000000
   30       -4.465282   1.000000
   31       -4.403183   1.000000
   32       -4.287462   1.000000
   33       -4.246277   1.000000
   34       -4.210362   1.000000
   35       -4.135461   1.000000
   36       -4.073564   1.000000
   37       -4.008650   1.000000
   38       -3.932227   1.000000
   39       -3.911286   1.000000
   40       -3.856078   1.000000
   41       -3.834545   1.000000
   42       -3.781968   1.000000
   43       -3.758119   1.000000
   44       -3.716475   1.000000
   45       -3.604617   1.000000
   46       -3.528130   1.000000
   47       -3.446680   1.000000
   48       -3.290453   1.000000
   49       -3.056294   1.000000
   50       -2.990166   1.000000
   51       -2.878261   1.000000
   52       -2.798284   1.000000
   53       -2.729558   1.000000
   54       -2.678337   1.000000
   55       -2.609228   1.000000
   56       -2.575541   1.000000
   57       -2.543125   1.000000
   58       -2.500339   1.000000
   59       -2.464842   1.000000
   60       -2.372450   1.000000
   61       -2.206605   1.000000
   62       -2.100830   1.000000
   63       -2.078600   1.000000
   64       -1.930371   1.000000
   65       -1.879153   1.000000
   66       -1.821103   1.000000
   67       -1.694486   1.000000
   68       -1.598271   1.000000
   69       -1.535625   1.000001
   70       -1.512104   1.000002
   71       -1.460974   1.000013
   72       -1.373387   1.000169
   73       -1.270367   1.001971
   74       -1.212035   1.006010
   75       -1.156331   1.014171
   76       -1.092029   1.028302
   77       -1.043908   1.035398
   78       -0.994175   1.024709
   79       -0.912986   0.915511
   80       -0.838369   0.678926
   81       -0.778759   0.431650
   82       -0.713443   0.184755
   83       -0.618016  -0.008671
   84       -0.595416  -0.024895
   85       -0.357162  -0.004142
   86        0.303907  -0.000000
   87        0.381997  -0.000000
   88        0.565873  -0.000000
   89        0.923110  -0.000000
   90        1.743860  -0.000000
   91        1.886023  -0.000000
   92        1.932428  -0.000000
   93        2.279472  -0.000000
   94        2.682481  -0.000000
   95        3.206600  -0.000000
   96        3.930024  -0.000000
 
 -0.6250000E-01  0.2500000E+00  0.0000000E+00  0.2083333E-01
    1       -9.525884   1.000000
    2       -8.274721   1.000000
    3       -7.528247   1.000000
    4       -7.230795   1.000000
    5       -7.108591   1.000000
    6       -7.099402   1.000000
    7       -7.085714   1.000000
    8       -6.891032   1.000000
    9       -6.860119   1.000000
   10       -6.785589   1.000000
   11       -6.664885   1.000000
   12       -6.490671   1.000000
   13       -6.472277   1.000000
   14       -6.437525   1.000000
   15       -6.328316   1.000000
   16       -6.283166   1.000000
   17       -6.122275   1.000000
   18       -6.032214   1.000000
   19       -5.932819   1.000000
   20       -5.598711   1.000000
   21       -5.581621   1.000000
   22       -5.515115   1.000000
   23       -5.093440   1.000000
   24       -5.033109   1.000000
   25       -4.940273   1.000000
   26       -4.826202   1.000000
   27       -4.775638   1.000000
   28       -4.714365   1.000000
   29       -4.498240   1.000000
   30       -4.469549   1.000000
   31       -4.409609   1.000000
   32       -4.272205   1.000000
   33       -4.246263   1.000000
   34       -4.222210   1.000000
   35       -4.112307   1.000000
   36       -4.077258   1.000000
   37       -4.016022   1.000000
   38       -3.930572   1.000000
   39       -3.912752   1.000000
   40       -3.857176   1.000000
   41       -3.811936   1.000000
   42       -3.795866   1.000000
   43       -3.774922   1.000000
   44       -3.718129   1.000000
   45       -3.652327   1.000000
   46       -3.498533   1.000000
   47       -3.437477   1.000000
   48       -3.285833   1.000000
   49       -3.035258   1.000000
   50       -2.995033   1.000000
   51       -2.875120   1.000000
   52       -2.789457   1.000000
   53       -2.735468   1.000000
   54       -2.707611   1.000000
   55       -2.601622   1.000000
   56       -2.570236   1.000000
   57       -2.532557   1.000000
   58       -2.501526   1.000000
   59       -2.466115   1.000000
   60       -2.365372   1.000000
   61       -2.205758   1.000000
   62       -2.140205   1.000000
   63       -2.071311   1.000000
   64       -1.933043   1.000000
   65       -1.872769   1.000000
   66       -1.801661   1.000000
   67       -1.687278   1.000000
   68       -1.595613   1.000000
   69       -1.577222   1.000000
   70       -1.492485   1.000005
   71       -1.450914   1.000018
   72       -1.406911   1.000067
   73       -1.263730   1.002261
   74       -1.209718   1.006254
   75       -1.129312   1.019796
   76       -1.087801   1.029217
   77       -1.047548   1.035245
   78       -1.001376   1.028139
   79       -0.890087   0.856390
   80       -0.840995   0.689142
   81       -0.785003   0.457877
   82       -0.757779   0.345603
   83       -0.637288   0.012976
   84       -0.512214  -0.031257
   85       -0.406398  -0.009573
   86        0.316952  -0.000000
   87        0.377353  -0.000000
   88        0.573518  -0.000000
   89        0.918429  -0.000000
   90        1.741289  -0.000000
   91        1.898954  -0.000000
   92        1.929342  -0.000000
   93        2.274601  -0.000000
   94        2.680915  -0.000000
   95        3.205381  -0.000000
   96        3.930844  -0.000000
 
  0.4375000E+00  0.6250000E-01  0.0000000E+00  0.2083333E-01
    1       -8.885234   1.000000
    2       -7.897436   1.000000
    3       -7.712338   1.000000
    4       -7.132806   1.000000
    5       -6.776555   1.000000
    6       -6.758203   1.000000
    7       -6.593660   1.000000
    8       -6.557040   1.000000
    9       -6.542258   1.000000
   10       -6.516140   1.000000
   11       -6.465280   1.000000
   12       -6.217975   1.000000
   13       -6.171475   1.000000
   14       -6.065198   1.000000
   15       -6.032215   1.000000
   16       -5.974540   1.000000
   17       -5.820656   1.000000
   18       -5.678849   1.000000
   19       -5.517459   1.000000
   20       -5.426945   1.000000
   21       -5.390161   1.000000
   22       -5.345333   1.000000
   23       -5.291863   1.000000
   24       -5.179526   1.000000
   25       -5.060340   1.000000
   26       -5.015664   1.000000
   27       -4.949967   1.000000
   28       -4.772989   1.000000
   29       -4.694253   1.000000
   30       -4.659250   1.000000
   31       -4.624289   1.000000
   32       -4.494496   1.000000
   33       -4.454750   1.000000
   34       -4.379972   1.000000
   35       -4.327309   1.000000
   36       -4.227515   1.000000
   37       -4.134774   1.000000
   38       -4.082152   1.000000
   39       -3.977693   1.000000
   40       -3.893168   1.000000
   41       -3.806597   1.000000
   42       -3.749850   1.000000
   43       -3.716639   1.000000
   44       -3.673254   1.000000
   45       -3.626792   1.000000
   46       -3.577984   1.000000
   47       -3.533292   1.000000
   48       -3.488020   1.000000
   49       -3.390788   1.000000
   50       -3.339750   1.000000
   51       -3.294634   1.000000
   52       -3.264435   1.000000
   53       -3.218129   1.000000
   54       -3.035383   1.000000
   55       -2.956232   1.000000
   56       -2.935006   1.000000
   57       -2.847550   1.000000
   58       -2.797622   1.000000
   59       -2.762414   1.000000
   60       -2.549928   1.000000
   61       -2.493004   1.000000
   62       -2.374659   1.000000
   63       -2.315424   1.000000
   64       -2.272133   1.000000
   65       -2.214589   1.000000
   66       -2.147970   1.000000
   67       -2.091779   1.000000
   68       -1.968806   1.000000
   69       -1.909106   1.000000
   70       -1.870041   1.000000
   71       -1.819547   1.000000
   72       -1.773047   1.000000
   73       -1.677888   1.000000
   74       -1.543150   1.000001
   75       -1.398501   1.000085
   76       -1.303380   1.000958
   77       -1.222188   1.005026
   78       -1.094579   1.027739
   79       -0.911777   0.912718
   80       -0.898918   0.880743
   81       -0.783846   0.453006
   82       -0.698169   0.138811
   83       -0.626313  -0.000308
   84       -0.578975  -0.031560
   85       -0.348521  -0.003519
   86       -0.174882  -0.000053
   87        0.721001  -0.000000
   88        1.019240  -0.000000
   89        1.039611  -0.000000
   90        1.843146  -0.000000
   91        1.982984  -0.000000
   92        2.058933  -0.000000
   93        2.424198  -0.000000
   94        3.047491  -0.000000
   95        3.549879  -0.000000
   96        4.019088  -0.000000
 
  0.3750000E+00  0.4375000E+00  0.0000000E+00  0.2083333E-01
    1       -8.885251   1.000000
    2       -7.897418   1.000000
    3       -7.712427   1.000000
    4       -7.132786   1.000000
    5       -6.777006   1.000000
    6       -6.756774   1.000000
    7       -6.598658   1.000000
    8       -6.553787   1.000000
    9       -6.540483   1.000000
   10       -6.517137   1.000000
   11       -6.466127   1.000000
   12       -6.220759   1.000000
   13       -6.167793   1.000000
   14       -6.062485   1.000000
   15       -6.035393   1.000000
   16       -5.973798   1.000000
   17       -5.822096   1.000000
   18       -5.679466   1.000000
   19       -5.519726   1.000000
   20       -5.426384   1.000000