<?xml version="1.0" encoding="ISO-8859-1"?>
<modeling>
 <generator>
  <i name="program" type="string">vasp </i>
  <i name="version" type="string">5.4.4.18Apr17-6-g9f103f2a35  </i>
  <i name="subversion" type="string">(build Apr 28 2017 10:53:45) complex            parallel </i>
  <i name="platform" type="string">LinuxIFC </i>
  <i name="date" type="string">2020 02 17 </i>
  <i name="time" type="string">09:19:49 </i>
 </generator>
 <incar>
  <i type="string" name="PREC">normal</i>
  <i type="int" name="ISPIN">     1</i>
  <i type="int" name="IBRION">     2</i>
  <i name="EDIFF">      0.00001000</i>
  <i name="EDIFFG">     -0.05000000</i>
  <i type="int" name="NSW">     0</i>
  <i name="ENCUT">    350.00000000</i>
  <i type="logical" name="LWAVE"> F  </i>
  <i type="logical" name="LCHARG"> F  </i>
  <v type="int" name="KPOINT_BSE">    -1     0     0     0</v>
  <i type="string" name="GGA"> PE</i>
  <i type="int" name="IDIPOL">     3</i>
 </incar>
 <structure name="primitive_cell" >
  <crystal>
   <varray name="basis" >
    <v>       5.55785930       0.00000000       0.00000000 </v>
    <v>       2.77892965       4.81324734       0.00000000 </v>
    <v>       0.00000000       0.00000000      30.80695967 </v>
   </varray>
   <i name="volume">    824.12780743 </i>
   <varray name="rec_basis" >
    <v>       0.17992539      -0.10387997       0.00000000 </v>
    <v>       0.00000000       0.20775994       0.00000000 </v>
    <v>       0.00000000       0.00000000       0.03246020 </v>
   </varray>
  </crystal>
  <varray name="positions" >
   <v>       0.00000000       0.00000000       0.38952237 </v>
   <v>       0.00000000      -0.50000000       0.38952237 </v>
   <v>      -0.50000000      -0.50000000       0.38952237 </v>
   <v>      -0.50000000       0.00000000       0.38952237 </v>
   <v>       0.16666667       0.16666667       0.46468540 </v>
   <v>       0.16666667      -0.33333333       0.46468540 </v>
   <v>      -0.33333333       0.16666667       0.46468540 </v>
   <v>      -0.33333333      -0.33333333       0.46468540 </v>
   <v>      -0.16666667      -0.16666667      -0.46079704 </v>
   <v>      -0.16666667       0.33333333      -0.46079704 </v>
   <v>       0.33333333      -0.16666667      -0.46079704 </v>
   <v>       0.33333333       0.33333333      -0.46079704 </v>
   <v>       0.00000000       0.00000000      -0.38513957 </v>
   <v>      -0.50000000       0.00000000      -0.38513957 </v>
   <v>       0.00000000      -0.50000000      -0.38513957 </v>
   <v>      -0.50000000      -0.50000000      -0.38513957 </v>
  </varray>
 </structure>
 <varray name="primitive_index" >
  <v type="int" >        1 </v>
  <v type="int" >        3 </v>
  <v type="int" >        4 </v>
  <v type="int" >        2 </v>
  <v type="int" >        5 </v>
  <v type="int" >        7 </v>
  <v type="int" >        6 </v>
  <v type="int" >        8 </v>
  <v type="int" >       11 </v>
  <v type="int" >        9 </v>
  <v type="int" >       12 </v>
  <v type="int" >       10 </v>
  <v type="int" >       13 </v>
  <v type="int" >       14 </v>
  <v type="int" >       15 </v>
  <v type="int" >       16 </v>
 </varray>
 <kpoints>
  <generation param="Monkhorst-Pack">
   <v type="int" name="divisions">       8        8        1 </v>
   <v name="usershift">      0.00000000       0.00000000       0.00000000 </v>
   <v name="genvec1">      0.12500000       0.00000000       0.00000000 </v>
   <v name="genvec2">      0.00000000       0.12500000       0.00000000 </v>
   <v name="genvec3">      0.00000000       0.00000000       1.00000000 </v>
   <v name="shift">      0.50000000       0.50000000       0.00000000 </v>
  </generation>
  <varray name="kpointlist" >
   <v>       0.06250000       0.06250000       0.00000000 </v>
   <v>       0.00000000       0.06250000       0.00000000 </v>
   <v>       0.18750000       0.06250000       0.00000000 </v>
   <v>       0.12500000       0.18750000       0.00000000 </v>
   <v>      -0.06250000       0.12500000       0.00000000 </v>
   <v>       0.31250000       0.06250000       0.00000000 </v>
   <v>       0.25000000       0.31250000       0.00000000 </v>
   <v>      -0.06250000       0.25000000       0.00000000 </v>
   <v>       0.43750000       0.06250000       0.00000000 </v>
   <v>       0.37500000       0.43750000       0.00000000 </v>
   <v>      -0.06250000       0.37500000       0.00000000 </v>
   <v>      -0.43750000       0.06250000       0.00000000 </v>
   <v>       0.50000000      -0.43750000       0.00000000 </v>
   <v>      -0.06250000       0.50000000       0.00000000 </v>
   <v>      -0.31250000       0.06250000       0.00000000 </v>
   <v>      -0.37500000      -0.31250000       0.00000000 </v>
   <v>      -0.06250000      -0.37500000       0.00000000 </v>
   <v>      -0.18750000       0.06250000       0.00000000 </v>
   <v>      -0.25000000      -0.18750000       0.00000000 </v>
   <v>      -0.06250000      -0.25000000       0.00000000 </v>
   <v>      -0.06250000       0.06250000       0.00000000 </v>
   <v>      -0.12500000      -0.06250000       0.00000000 </v>
   <v>       0.18750000       0.18750000       0.00000000 </v>
   <v>       0.00000000       0.18750000       0.00000000 </v>
   <v>       0.31250000       0.18750000       0.00000000 </v>
   <v>       0.12500000       0.31250000       0.00000000 </v>
   <v>      -0.18750000       0.12500000       0.00000000 </v>
   <v>       0.43750000       0.18750000       0.00000000 </v>
   <v>       0.25000000       0.43750000       0.00000000 </v>
   <v>      -0.18750000       0.25000000       0.00000000 </v>
   <v>      -0.43750000       0.18750000       0.00000000 </v>
   <v>       0.37500000      -0.43750000       0.00000000 </v>
   <v>      -0.18750000       0.37500000       0.00000000 </v>
   <v>      -0.31250000       0.18750000       0.00000000 </v>
   <v>       0.50000000      -0.31250000       0.00000000 </v>
   <v>      -0.18750000       0.50000000       0.00000000 </v>
   <v>      -0.18750000       0.18750000       0.00000000 </v>
   <v>      -0.37500000      -0.18750000       0.00000000 </v>
   <v>       0.31250000       0.31250000       0.00000000 </v>
   <v>       0.00000000       0.31250000       0.00000000 </v>
   <v>       0.43750000       0.31250000       0.00000000 </v>
   <v>       0.12500000       0.43750000       0.00000000 </v>
   <v>      -0.31250000       0.12500000       0.00000000 </v>
   <v>      -0.43750000       0.31250000       0.00000000 </v>
   <v>       0.25000000      -0.43750000       0.00000000 </v>
   <v>      -0.31250000       0.25000000       0.00000000 </v>
   <v>      -0.31250000       0.31250000       0.00000000 </v>
   <v>       0.37500000      -0.31250000       0.00000000 </v>
   <v>       0.43750000       0.43750000       0.00000000 </v>
   <v>       0.00000000       0.43750000       0.00000000 </v>
   <v>      -0.43750000       0.43750000       0.00000000 </v>
   <v>       0.12500000      -0.43750000       0.00000000 </v>
  </varray>
  <varray name="weights" >
   <v>       0.01041667 </v>
   <v>       0.02083333 </v>
   <v>       0.02083333 </v>
   <v>       0.02083333 </v>
   <v>       0.02083333 </v>
   <v>       0.02083333 </v>
   <v>       0.02083333 </v>
   <v>       0.02083333 </v>
   <v>       0.02083333 </v>
   <v>       0.02083333 </v>
   <v>       0.02083333 </v>
   <v>       0.02083333 </v>
   <v>       0.02083333 </v>
   <v>       0.02083333 </v>
   <v>       0.02083333 </v>
   <v>       0.02083333 </v>
   <v>       0.02083333 </v>
   <v>       0.02083333 </v>
   <v>       0.02083333 </v>
   <v>       0.02083333 </v>
   <v>       0.01041667 </v>
   <v>       0.02083333 </v>
   <v>       0.01041667 </v>
   <v>       0.02083333 </v>
   <v>       0.02083333 </v>
   <v>       0.02083333 </v>
   <v>       0.02083333 </v>
   <v>       0.02083333 </v>
   <v>       0.02083333 </v>
   <v>       0.02083333 </v>
   <v>       0.02083333 </v>
   <v>       0.02083333 </v>
   <v>       0.02083333 </v>
   <v>       0.02083333 </v>
   <v>       0.02083333 </v>
   <v>       0.02083333 </v>
   <v>       0.01041667 </v>
   <v>       0.02083333 </v>
   <v>       0.01041667 </v>
   <v>       0.02083333 </v>
   <v>       0.02083333 </v>
   <v>       0.02083333 </v>
   <v>       0.02083333 </v>
   <v>       0.02083333 </v>
   <v>       0.02083333 </v>
   <v>       0.02083333 </v>
   <v>       0.01041667 </v>
   <v>       0.02083333 </v>
   <v>       0.01041667 </v>
   <v>       0.02083333 </v>
   <v>       0.01041667 </v>
   <v>       0.02083333 </v>
  </varray>
 </kpoints>
 <parameters>
  <separator name="general" >
   <i type="string" name="SYSTEM">unknown system</i>
   <i type="logical" name="LCOMPAT"> F  </i>
  </separator>
  <separator name="electronic" >
   <i type="string" name="PREC">normal</i>
   <i name="ENMAX">    350.00000000</i>
   <i name="ENAUG">    358.96600000</i>
   <i name="EDIFF">      0.00001000</i>
   <i type="int" name="IALGO">    38</i>
   <i type="int" name="IWAVPR">    10</i>
   <i type="int" name="NBANDS">    96</i>
   <i name="NELECT">    160.00000000</i>
   <i type="int" name="TURBO">     0</i>
   <i type="int" name="IRESTART">     0</i>
   <i type="int" name="NREBOOT">     0</i>
   <i type="int" name="NMIN">     0</i>
   <i name="EREF">      0.00000000</i>
   <separator name="electronic smearing" >
    <i type="int" name="ISMEAR">     1</i>
    <i name="SIGMA">      0.20000000</i>
    <i name="KSPACING">      0.50000000</i>
    <i type="logical" name="KGAMMA"> T  </i>
   </separator>
   <separator name="electronic projectors" >
    <i type="logical" name="LREAL"> F  </i>
    <v name="ROPT">      0.00000000      0.00000000      0.00000000</v>
    <i type="int" name="LMAXPAW">  -100</i>
    <i type="int" name="LMAXMIX">     2</i>
    <i type="logical" name="NLSPLINE"> F  </i>
   </separator>
   <separator name="electronic startup" >
    <i type="int" name="ISTART">     0</i>
    <i type="int" name="ICHARG">     2</i>
    <i type="int" name="INIWAV">     1</i>
   </separator>
   <separator name="electronic spin" >
    <i type="int" name="ISPIN">     1</i>
    <i type="logical" name="LNONCOLLINEAR"> F  </i>
    <v name="MAGMOM">      1.00000000      1.00000000      1.00000000      1.00000000      1.00000000      1.00000000      1.00000000      1.00000000      1.00000000      1.00000000      1.00000000      1.00000000      1.00000000      1.00000000      1.00000000      1.00000000</v>
    <i name="NUPDOWN">     -1.00000000</i>
    <i type="logical" name="LSORBIT"> F  </i>
    <v name="SAXIS">      0.00000000      0.00000000      1.00000000</v>
    <i type="logical" name="LSPIRAL"> F  </i>
    <v name="QSPIRAL">      0.00000000      0.00000000      0.00000000</v>
    <i type="logical" name="LZEROZ"> F  </i>
   </separator>
   <separator name="electronic exchange-correlation" >
    <i type="logical" name="LASPH"> F  </i>
    <i type="logical" name="LMETAGGA"> F  </i>
   </separator>
   <separator name="electronic convergence" >
    <i type="int" name="NELM">    60</i>
    <i type="int" name="NELMDL">    -5</i>
    <i type="int" name="NELMIN">     2</i>
    <i name="ENINI">    350.00000000</i>
    <separator name="electronic convergence detail" >
     <i type="logical" name="LDIAG"> T  </i>
     <i type="logical" name="LSUBROT"> F  </i>
     <i name="WEIMIN">      0.00000000</i>
     <i name="EBREAK">      0.00000003</i>
     <i name="DEPER">      0.30000000</i>
     <i type="int" name="NRMM">     4</i>
     <i name="TIME">      0.40000000</i>
    </separator>
   </separator>
   <separator name="electronic mixer" >
    <i name="AMIX">      0.40000000</i>
    <i name="BMIX">      1.00000000</i>
    <i name="AMIN">      0.10000000</i>
    <i name="AMIX_MAG">      1.60000000</i>
    <i name="BMIX_MAG">      1.00000000</i>
    <separator name="electronic mixer details" >
     <i type="int" name="IMIX">     4</i>
     <i type="logical" name="MIXFIRST"> F  </i>
     <i type="int" name="MAXMIX">   -45</i>
     <i name="WC">    100.00000000</i>
     <i type="int" name="INIMIX">     1</i>
     <i type="int" name="MIXPRE">     1</i>
     <i type="int" name="MREMOVE">     5</i>
    </separator>
   </separator>
   <separator name="electronic dipolcorrection" >
    <i type="logical" name="LDIPOL"> F  </i>
    <i type="logical" name="LMONO"> F  </i>
    <i type="int" name="IDIPOL">     3</i>
    <i name="EPSILON">      1.00000000</i>
    <v name="DIPOL">   -100.00000000   -100.00000000   -100.00000000</v>
    <i name="EFIELD">      0.00000000</i>
   </separator>
  </separator>
  <separator name="grids" >
   <i type="int" name="NGX">    28</i>
   <i type="int" name="NGY">    28</i>
   <i type="int" name="NGZ">   144</i>
   <i type="int" name="NGXF">    56</i>
   <i type="int" name="NGYF">    56</i>
   <i type="int" name="NGZF">   288</i>
   <i type="logical" name="ADDGRID"> F  </i>
  </separator>
  <separator name="ionic" >
   <i type="int" name="NSW">     0</i>
   <i type="int" name="IBRION">    -1</i>
   <i type="int" name="MDALGO">     0</i>
   <i type="int" name="ISIF">     2</i>
   <i name="PSTRESS">      0.00000000</i>
   <i name="EDIFFG">     -0.05000000</i>
   <i type="int" name="NFREE">     1</i>
   <i name="POTIM">      0.50000000</i>
   <i name="SMASS">     -3.00000000</i>
   <i name="SCALEE">      1.00000000</i>
  </separator>
  <separator name="ionic md" >
   <i name="TEBEG">      0.00010000</i>
   <i name="TEEND">      0.00010000</i>
   <i type="int" name="NBLOCK">     1</i>
   <i type="int" name="KBLOCK">     1</i>
   <i type="int" name="NPACO">   256</i>
   <i name="APACO">     16.00000000</i>
  </separator>
  <separator name="symmetry" >
   <i type="int" name="ISYM">     2</i>
   <i name="SYMPREC">      0.00001000</i>
  </separator>
  <separator name="dos" >
   <i type="int" name="LORBIT">     0</i>
   <v name="RWIGS">     -1.00000000     -1.00000000     -1.00000000</v>
   <i type="int" name="NEDOS">   301</i>
   <i name="EMIN">     10.00000000</i>
   <i name="EMAX">    -10.00000000</i>
   <i name="EFERMI">      0.00000000</i>
  </separator>
  <separator name="writing" >
   <i type="int" name="NWRITE">     2</i>
   <i type="logical" name="LWAVE"> F  </i>
   <i type="logical" name="LDOWNSAMPLE"> F  </i>
   <i type="logical" name="LCHARG"> F  </i>
   <i type="logical" name="LPARD"> F  </i>
   <i type="logical" name="LVTOT"> F  </i>
   <i type="logical" name="LVHAR"> F  </i>
   <i type="logical" name="LELF"> F  </i>
   <i type="logical" name="LOPTICS"> F  </i>
   <v name="STM">      0.00000000      0.00000000      0.00000000      0.00000000      0.00000000      0.00000000      0.00000000</v>
  </separator>
  <separator name="performance" >
   <i type="int" name="NPAR">    24</i>
   <i type="int" name="NSIM">     4</i>
   <i type="int" name="NBLK">    -1</i>
   <i type="logical" name="LPLANE"> T  </i>
   <i type="logical" name="LSCALAPACK"> T  </i>
   <i type="logical" name="LSCAAWARE"> F  </i>
   <i type="logical" name="LSCALU"> F  </i>
   <i type="logical" name="LASYNC"> F  </i>
   <i type="logical" name="LORBITALREAL"> F  </i>
  </separator>
  <separator name="miscellaneous" >
   <i type="int" name="IDIOT">     3</i>
   <i type="int" name="ISPECIAL">     0</i>
   <i type="logical" name="LMUSIC"> F  </i>
   <v name="POMASS">    196.96600000    195.08000000    192.22000000</v>
   <v name="DARWINR">      0.00000000      0.00000000      0.00000000</v>
   <v name="DARWINV">      1.00000000      1.00000000      1.00000000</v>
   <i type="logical" name="LCORR"> T  </i>
  </separator>
  <i type="logical" name="GGA_COMPAT"> T  </i>
  <i type="logical" name="LBERRY"> F  </i>
  <i type="int" name="ICORELEVEL">     0</i>
  <i type="logical" name="LDAU"> F  </i>
  <i type="int" name="I_CONSTRAINED_M">     0</i>
  <separator name="electronic exchange-correlation" >
   <i type="string" name="GGA">PE</i>
   <i type="int" name="VOSKOWN">     0</i>
   <i type="logical" name="LHFCALC"> F  </i>
   <i type="string" name="PRECFOCK"></i>
   <i type="logical" name="LSYMGRAD"> F  </i>
   <i type="logical" name="LHFONE"> F  </i>
   <i type="logical" name="LRHFCALC"> F  </i>
   <i type="logical" name="LTHOMAS"> F  </i>
   <i type="logical" name="LMODELHF"> F  </i>
   <i name="ENCUT4O">     -1.00000000</i>
   <i type="int" name="EXXOEP">     0</i>
   <i type="int" name="FOURORBIT">     0</i>
   <i name="AEXX">      0.00000000</i>
   <i name="HFALPHA">      0.00000000</i>
   <i name="MCALPHA">      0.00000000</i>
   <i name="ALDAX">      1.00000000</i>
   <i name="AGGAX">      1.00000000</i>
   <i name="ALDAC">      1.00000000</i>
   <i name="AGGAC">      1.00000000</i>
   <i type="int" name="NKREDX">     1</i>
   <i type="int" name="NKREDY">     1</i>
   <i type="int" name="NKREDZ">     1</i>
   <i type="logical" name="SHIFTRED"> F  </i>
   <i type="logical" name="ODDONLY"> F  </i>
   <i type="logical" name="EVENONLY"> F  </i>
   <i type="int" name="LMAXFOCK">     0</i>
   <i type="int" name="NMAXFOCKAE">     0</i>
   <i type="logical" name="LFOCKAEDFT"> F  </i>
   <i name="HFSCREEN">      0.00000000</i>
   <i name="HFSCREENC">      0.00000000</i>
   <i type="int" name="NBANDSGWLOW">     0</i>
  </separator>
  <separator name="vdW DFT" >
   <i type="logical" name="LUSE_VDW"> F  </i>
   <i name="Zab_VDW">     -0.84910000</i>
   <i name="PARAM1">      0.12340000</i>
   <i name="PARAM2">      1.00000000</i>
   <i name="PARAM3">      0.00000000</i>
  </separator>
  <separator name="model GW" >
   <i type="int" name="MODEL_GW">     0</i>
   <i name="MODEL_EPS0">     30.90479278</i>
   <i name="MODEL_ALPHA">      1.00000000</i>
  </separator>
  <separator name="linear response parameters" >
   <i type="logical" name="LEPSILON"> F  </i>
   <i type="logical" name="LRPA"> F  </i>
   <i type="logical" name="LNABLA"> F  </i>
   <i type="logical" name="LVEL"> F  </i>
   <i type="int" name="KINTER">     0</i>
   <i name="CSHIFT">      0.10000000</i>
   <i name="OMEGAMAX">     -1.00000000</i>
   <i name="DEG_THRESHOLD">      0.00200000</i>
   <i name="RTIME">     -0.10000000</i>
   <i name="WPLASMAI">      0.00000000</i>
   <v name="DFIELD">      0.00000000      0.00000000      0.00000000</v>
   <v name="WPLASMA">      0.00000000      0.00000000      0.00000000      0.00000000      0.00000000      0.00000000      0.00000000      0.00000000      0.00000000</v>
  </separator>
  <separator name="orbital magnetization" >
   <i type="logical" name="NUCIND"> F  </i>
   <v name="MAGPOS">      0.00000000      0.00000000      0.00000000</v>
   <i type="logical" name="LNICSALL"> T  </i>
   <i type="logical" name="ORBITALMAG"> F  </i>
   <i type="logical" name="LMAGBLOCH"> F  </i>
   <i type="logical" name="LCHIMAG"> F  </i>
   <i type="logical" name="LGAUGE"> T  </i>
   <i type="int" name="MAGATOM">     0</i>
   <v name="MAGDIPOL">      0.00000000      0.00000000      0.00000000</v>
   <v name="AVECCONST">      0.00000000      0.00000000      0.00000000</v>
  </separator>
  <separator name="response functions" >
   <i type="logical" name="LADDER"> F  </i>
   <i type="logical" name="LRPAFORCE"> F  </i>
   <i type="logical" name="LFXC"> F  </i>
   <i type="logical" name="LHARTREE"> T  </i>
   <i type="int" name="IBSE">     0</i>
   <v type="int" name="KPOINT">    -1     0     0     0</v>
   <i type="logical" name="LTCTE"> F  </i>
   <i type="logical" name="LTETE"> F  </i>
   <i type="logical" name="LTRIPLET"> F  </i>
   <i type="logical" name="LFXCEPS"> F  </i>
   <i type="logical" name="LFXHEG"> F  </i>
   <i type="int" name="NATURALO">     2</i>
   <i type="logical" name="L2ORDER"> F  </i>
   <i type="logical" name="LMP2LT"> F  </i>
   <i type="logical" name="LUSEW"> F  </i>
   <i name="ENCUTGW">     -2.00000000</i>
   <i name="ENCUTGWSOFT">     -2.00000000</i>
   <i name="ENCUTLF">     -1.00000000</i>
   <i type="int" name="LMAXMP2">    -1</i>
   <i name="SCISSOR">      0.00000000</i>
   <i type="int" name="NOMEGA">     0</i>
   <i type="int" name="NOMEGAR">     0</i>
   <i type="int" name="NBANDSGW">    -1</i>
   <i type="int" name="NBANDSO">    -1</i>
   <i type="int" name="NBANDSV">    -1</i>
   <i type="int" name="NELM">     1</i>
   <i type="int" name="NELMHF">     1</i>
   <i type="int" name="DIM">     3</i>
   <i type="int" name="ANTIRES">     0</i>
   <i name="OMEGAMAX">    -30.00000000</i>
   <i name="OMEGAMIN">    -30.00000000</i>
   <i name="OMEGATL">   -200.00000000</i>
   <i type="int" name="OMEGAGRID">   140</i>
   <i name="CSHIFT">     -0.10000000</i>
   <i type="logical" name="SELFENERGY"> F  </i>
   <i type="logical" name="LSPECTRAL"> F  </i>
   <i type="logical" name="LSPECTRALGW"> F  </i>
   <i type="logical" name="LSINGLES"> F  </i>
   <i type="logical" name="LFERMIGW"> F  </i>
   <i type="logical" name="ODDONLYGW"> F  </i>
   <i type="logical" name="EVENONLYGW"> F  </i>
   <i type="int" name="NKREDLFX">     1</i>
   <i type="int" name="NKREDLFY">     1</i>
   <i type="int" name="NKREDLFZ">     1</i>
   <i type="int" name="MAXMEM">  2800</i>
   <i type="int" name="TELESCOPE">     0</i>
   <i type="int" name="TAUPAR">     1</i>
   <i type="int" name="OMEGAPAR">    -1</i>
   <i name="LAMBDA">      1.00000000</i>
  </separator>
  <separator name="External order field" >
   <i name="OFIELD_KAPPA">      0.00000000</i>
   <v name="OFIELD_K">      0.00000000      0.00000000      0.00000000</v>
   <i name="OFIELD_Q6_NEAR">      0.00000000</i>
   <i name="OFIELD_Q6_FAR">      0.00000000</i>
   <i name="OFIELD_A">      0.00000000</i>
  </separator>
 </parameters>
 <atominfo>
  <atoms>      16 </atoms>
  <types>       3 </types>
  <array name="atoms" >
   <dimension dim="1">ion</dimension>
   <field type="string">element</field>
   <field type="int">atomtype</field>
   <set>
    <rc><c>Au</c><c>   1</c></rc>
    <rc><c>Pt</c><c>   2</c></rc>
    <rc><c>Pt</c><c>   2</c></rc>
    <rc><c>Pt</c><c>   2</c></rc>
    <rc><c>Pt</c><c>   2</c></rc>
    <rc><c>Pt</c><c>   2</c></rc>
    <rc><c>Pt</c><c>   2</c></rc>
    <rc><c>Pt</c><c>   2</c></rc>
    <rc><c>Pt</c><c>   2</c></rc>
    <rc><c>Pt</c><c>   2</c></rc>
    <rc><c>Pt</c><c>   2</c></rc>
    <rc><c>Pt</c><c>   2</c></rc>
    <rc><c>Pt</c><c>   2</c></rc>
    <rc><c>Pt</c><c>   2</c></rc>
    <rc><c>Pt</c><c>   2</c></rc>
    <rc><c>Ir</c><c>   3</c></rc>
   </set>
  </array>
  <array name="atomtypes" >
   <dimension dim="1">type</dimension>
   <field type="int">atomspertype</field>
   <field type="string">element</field>
   <field>mass</field>
   <field>valence</field>
   <field type="string">pseudopotential</field>
   <set>
    <rc><c>   1</c><c>Au</c><c>    196.96600000</c><c>     11.00000000</c><c>  PAW_PBE Au 04Oct2007                  </c></rc>
    <rc><c>  14</c><c>Pt</c><c>    195.08000000</c><c>     10.00000000</c><c>  PAW_PBE Pt 04Feb2005                  </c></rc>
    <rc><c>   1</c><c>Ir</c><c>    192.22000000</c><c>      9.00000000</c><c>  PAW_PBE Ir 06Sep2000                  </c></rc>
   </set>
  </array>
 </atominfo>
 <structure name="initialpos" >
  <crystal>
   <varray name="basis" >
    <v>       5.55785930       0.00000000       0.00000000 </v>
    <v>       2.77892965       4.81324734       0.00000000 </v>
    <v>       0.00000000       0.00000000      30.80695967 </v>
   </varray>
   <i name="volume">    824.12780743 </i>
   <varray name="rec_basis" >
    <v>       0.17992539      -0.10387997       0.00000000 </v>
    <v>       0.00000000       0.20775994       0.00000000 </v>
    <v>       0.00000000       0.00000000       0.03246020 </v>
   </varray>
  </crystal>
  <varray name="positions" >
   <v>       0.00000000       0.00000000       0.38952237 </v>
   <v>       0.50000000       0.00000000       0.38952237 </v>
   <v>       0.00000000       0.50000000       0.38952237 </v>
   <v>       0.50000000       0.50000000       0.38952237 </v>
   <v>       0.16666667       0.16666667       0.46468540 </v>
   <v>       0.66666667       0.16666667       0.46468540 </v>
   <v>       0.16666667       0.66666667       0.46468540 </v>
   <v>       0.66666667       0.66666667       0.46468540 </v>
   <v>       0.83333333       0.33333333       0.53920296 </v>
   <v>       0.33333333       0.33333333       0.53920296 </v>
   <v>       0.83333333       0.83333333       0.53920296 </v>
   <v>       0.33333333       0.83333333       0.53920296 </v>
   <v>       0.00000000       0.00000000       0.61486043 </v>
   <v>       0.50000000       0.00000000       0.61486043 </v>
   <v>       0.00000000       0.50000000       0.61486043 </v>
   <v>       0.50000000       0.50000000       0.61486043 </v>
  </varray>
  <varray name="selective"  type="logical" >
   <v type="logical" >  F  F  F </v>
   <v type="logical" >  F  F  F </v>
   <v type="logical" >  F  F  F </v>
   <v type="logical" >  F  F  F </v>
   <v type="logical" >  T  T  T </v>
   <v type="logical" >  T  T  T </v>
   <v type="logical" >  T  T  T </v>
   <v type="logical" >  T  T  T </v>
   <v type="logical" >  T  T  T </v>
   <v type="logical" >  T  T  T </v>
   <v type="logical" >  T  T  T </v>
   <v type="logical" >  T  T  T </v>
   <v type="logical" >  T  T  T </v>
   <v type="logical" >  T  T  T </v>
   <v type="logical" >  T  T  T </v>
   <v type="logical" >  T  T  T </v>
  </varray>
  <nose>
   <v>      -3.00000000       0.00000000       0.00010000       0.00010000 </v>
  </nose>
 </structure>
 <calculation>
  <scstep>
   <time name="dav">   11.06   11.07</time>
   <time name="total">   11.09   11.10</time>
   <energy>
    <i name="alphaZ">    303.52543553 </i>
    <i name="ewald">  98439.91766519 </i>
    <i name="hartreedc">-110511.43137500 </i>
    <i name="XCdc">     46.26589394 </i>
    <i name="pawpsdc">  11171.21661038 </i>
    <i name="pawaedc"> -10711.84633960 </i>
    <i name="eentropy">     -0.00520103 </i>
    <i name="bandstr">    546.73016665 </i>
    <i name="atom">  11693.69420960 </i>
    <i name="e_fr_energy">    978.06706566 </i>
    <i name="e_wo_entrp">    978.07226669 </i>
    <i name="e_0_energy">    978.06879934 </i>
   </energy>
  </scstep>
  <scstep>
   <time name="dav">   15.01   15.01</time>
   <time name="total">   15.01   15.01</time>
   <energy>
    <i name="e_fr_energy">    -39.08133040 </i>
    <i name="e_wo_entrp">    -39.08748242 </i>
    <i name="e_0_energy">    -39.08338107 </i>
   </energy>
  </scstep>
  <scstep>
   <time name="dav">   13.17   13.17</time>
   <time name="total">   13.17   13.17</time>
   <energy>
    <i name="e_fr_energy">    -97.01128447 </i>
    <i name="e_wo_entrp">    -96.98500185 </i>
    <i name="e_0_energy">    -97.00252360 </i>
   </energy>
  </scstep>
  <scstep>
   <time name="dav">   14.76   14.76</time>
   <time name="total">   14.76   14.77</time>
   <energy>
    <i name="e_fr_energy">    -98.23302393 </i>
    <i name="e_wo_entrp">    -98.20667337 </i>
    <i name="e_0_energy">    -98.22424041 </i>
   </energy>
  </scstep>
  <scstep>
   <time name="dav">   15.61   15.61</time>
   <time name="total">   15.95   15.95</time>
   <energy>
    <i name="e_fr_energy">    -98.26354653 </i>
    <i name="e_wo_entrp">    -98.23726121 </i>
    <i name="e_0_energy">    -98.25478476 </i>
   </energy>
  </scstep>
  <scstep>
   <time name="dav">   12.82   12.82</time>
   <time name="total">   13.19   13.19</time>
   <energy>
    <i name="e_fr_energy">    -94.34615706 </i>
    <i name="e_wo_entrp">    -94.32606062 </i>
    <i name="e_0_energy">    -94.33945825 </i>
   </energy>
  </scstep>
  <scstep>
   <time name="dav">   15.42   15.42</time>
   <time name="total">   15.79   15.79</time>
   <energy>
    <i name="e_fr_energy">   -123.82966360 </i>
    <i name="e_wo_entrp">   -123.83497255 </i>
    <i name="e_0_energy">   -123.83143325 </i>
   </energy>
  </scstep>
  <scstep>
   <time name="dav">   15.96   15.97</time>
   <time name="total">   16.33   16.34</time>
   <energy>
    <i name="e_fr_energy">   -101.26658278 </i>
    <i name="e_wo_entrp">   -101.27955866 </i>
    <i name="e_0_energy">   -101.27090808 </i>
   </energy>
  </scstep>
  <scstep>
   <time name="dav">   14.37   14.37</time>
   <time name="total">   14.74   14.75</time>
   <energy>
    <i name="e_fr_energy">   -103.02494304 </i>
    <i name="e_wo_entrp">   -103.05058517 </i>
    <i name="e_0_energy">   -103.03349042 </i>
   </energy>
  </scstep>
  <scstep>
   <time name="dav">   16.86   16.86</time>
   <time name="total">   17.23   17.23</time>
   <energy>
    <i name="e_fr_energy">   -101.23244398 </i>
    <i name="e_wo_entrp">   -101.20123596 </i>
    <i name="e_0_energy">   -101.22204131 </i>
   </energy>
  </scstep>
  <scstep>
   <time name="dav">   14.75   14.75</time>
   <time name="total">   15.15   15.15</time>
   <energy>
    <i name="e_fr_energy">    -92.97753545 </i>
    <i name="e_wo_entrp">    -92.93150656 </i>
    <i name="e_0_energy">    -92.96219248 </i>
   </energy>
  </scstep>
  <scstep>
   <time name="dav">   15.81   15.81</time>
   <time name="total">   16.21   16.21</time>
   <energy>
    <i name="e_fr_energy">    -93.08151310 </i>
    <i name="e_wo_entrp">    -93.05785729 </i>
    <i name="e_0_energy">    -93.07362783 </i>
   </energy>
  </scstep>
  <scstep>
   <time name="dav">   15.18   15.18</time>
   <time name="total">   15.61   15.61</time>
   <energy>
    <i name="e_fr_energy">    -92.13979590 </i>
    <i name="e_wo_entrp">    -92.09437877 </i>
    <i name="e_0_energy">    -92.12465685 </i>
   </energy>
  </scstep>
  <scstep>
   <time name="dav">   13.07   13.07</time>
   <time name="total">   13.47   13.47</time>
   <energy>
    <i name="e_fr_energy">    -92.06174439 </i>
    <i name="e_wo_entrp">    -92.02741484 </i>
    <i name="e_0_energy">    -92.05030121 </i>
   </energy>
  </scstep>
  <scstep>
   <time name="dav">   14.26   14.26</time>
   <time name="total">   14.67   14.67</time>
   <energy>
    <i name="e_fr_energy">    -92.06099528 </i>
    <i name="e_wo_entrp">    -92.02381016 </i>
    <i name="e_0_energy">    -92.04860024 </i>
   </energy>
  </scstep>
  <scstep>
   <time name="dav">   15.61   15.61</time>
   <time name="total">   16.02   16.02</time>
   <energy>
    <i name="e_fr_energy">    -92.05290276 </i>
    <i name="e_wo_entrp">    -92.01626987 </i>
    <i name="e_0_energy">    -92.04069180 </i>
   </energy>
  </scstep>
  <scstep>
   <time name="dav">   13.49   13.49</time>
   <time name="total">   13.90   13.91</time>
   <energy>
    <i name="e_fr_energy">    -92.01628923 </i>
    <i name="e_wo_entrp">    -91.97704969 </i>
    <i name="e_0_energy">    -92.00320938 </i>
   </energy>
  </scstep>
  <scstep>
   <time name="dav">   13.70   13.70</time>
   <time name="total">   14.11   14.12</time>
   <energy>
    <i name="e_fr_energy">    -92.01775817 </i>
    <i name="e_wo_entrp">    -91.97881645 </i>
    <i name="e_0_energy">    -92.00477760 </i>
   </energy>
  </scstep>
  <scstep>
   <time name="dav">   13.00   13.00</time>
   <time name="total">   13.41   13.41</time>
   <energy>
    <i name="e_fr_energy">    -92.01512741 </i>
    <i name="e_wo_entrp">    -91.97619795 </i>
    <i name="e_0_energy">    -92.00215092 </i>
   </energy>
  </scstep>
  <scstep>
   <time name="dav">   14.85   14.85</time>
   <time name="total">   15.26   15.26</time>
   <energy>
    <i name="e_fr_energy">    -92.01264379 </i>
    <i name="e_wo_entrp">    -91.97319662 </i>
    <i name="e_0_energy">    -91.99949474 </i>
   </energy>
  </scstep>
  <scstep>
   <time name="dav">   13.93   13.93</time>
   <time name="total">   14.34   14.35</time>
   <energy>
    <i name="e_fr_energy">    -92.01137517 </i>
    <i name="e_wo_entrp">    -91.97219690 </i>
    <i name="e_0_energy">    -91.99831575 </i>
   </energy>
  </scstep>
  <scstep>
   <time name="dav">   13.99   13.99</time>
   <time name="total">   14.40   14.40</time>
   <energy>
    <i name="e_fr_energy">    -92.01134313 </i>
    <i name="e_wo_entrp">    -91.97206744 </i>
    <i name="e_0_energy">    -91.99825123 </i>
   </energy>
  </scstep>
  <scstep>
   <time name="dav">   16.29   16.29</time>
   <time name="total">   16.70   16.70</time>
   <energy>
    <i name="e_fr_energy">    -92.01039804 </i>
    <i name="e_wo_entrp">    -91.97080770 </i>
    <i name="e_0_energy">    -91.99720126 </i>
   </energy>
  </scstep>
  <scstep>
   <time name="dav">   16.29   16.29</time>
   <time name="total">   16.69   16.70</time>
   <energy>
    <i name="e_fr_energy">    -92.01009203 </i>
    <i name="e_wo_entrp">    -91.97036685 </i>
    <i name="e_0_energy">    -91.99685030 </i>
   </energy>
  </scstep>
  <scstep>
   <time name="dav">   15.04   15.04</time>
   <time name="total">   15.45   15.45</time>
   <energy>
    <i name="e_fr_energy">    -92.00989717 </i>
    <i name="e_wo_entrp">    -91.96994548 </i>
    <i name="e_0_energy">    -91.99657994 </i>
   </energy>
  </scstep>
  <scstep>
   <time name="dav">   12.20   12.21</time>
   <time name="total">   12.61   12.61</time>
   <energy>
    <i name="e_fr_energy">    -92.00987143 </i>
    <i name="e_wo_entrp">    -91.96969824 </i>
    <i name="e_0_energy">    -91.99648037 </i>
   </energy>
  </scstep>
  <scstep>
   <time name="dav">    9.44    9.44</time>
   <time name="total">    9.46    9.47</time>
   <energy>
    <i name="alphaZ">    303.52543553 </i>
    <i name="ewald">  98439.91766519 </i>
    <i name="hartreedc">-110343.63402460 </i>
    <i name="XCdc">     40.60476310 </i>
    <i name="pawpsdc">  14193.02234831 </i>
    <i name="pawaedc"> -13778.00939683 </i>
    <i name="eentropy">     -0.04021210 </i>
    <i name="bandstr">   -641.09066739 </i>
    <i name="atom">  11693.69420960 </i>
    <i name="e_fr_energy">    -92.00987920 </i>
    <i name="e_wo_entrp">    -91.96966710 </i>
    <i name="e_0_energy">    -91.99647517 </i>
   </energy>
  </scstep>
  <dipole>
   <v name="dipole">      0.00000000       0.00000000       0.02304075 </v>
   <i name="Tr[quadrupol]">   -935.80574357 </i>
   <i name="Echarged">      0.00000000 </i>
   <i name="Edipol_quadrupol">      0.00000000 </i>
   <i name="Eion">      0.00000000 </i>
  </dipole>
  <structure>
   <crystal>
    <varray name="basis" >
     <v>       5.55785930       0.00000000       0.00000000 </v>
     <v>       2.77892965       4.81324734       0.00000000 </v>
     <v>       0.00000000       0.00000000      30.80695967 </v>
    </varray>
    <i name="volume">    824.12780743 </i>
    <varray name="rec_basis" >
     <v>       0.17992539      -0.10387997       0.00000000 </v>
     <v>       0.00000000       0.20775994       0.00000000 </v>
     <v>       0.00000000       0.00000000       0.03246020 </v>
    </varray>
   </crystal>
   <varray name="positions" >
    <v>       0.00000000       0.00000000       0.38952237 </v>
    <v>       0.50000000       0.00000000       0.38952237 </v>
    <v>       0.00000000       0.50000000       0.38952237 </v>
    <v>       0.50000000       0.50000000       0.38952237 </v>
    <v>       0.16666667       0.16666667       0.46468540 </v>
    <v>       0.66666667       0.16666667       0.46468540 </v>
    <v>       0.16666667       0.66666667       0.46468540 </v>
    <v>       0.66666667       0.66666667       0.46468540 </v>
    <v>       0.83333333       0.33333333       0.53920296 </v>
    <v>       0.33333333       0.33333333       0.53920296 </v>
    <v>       0.83333333       0.83333333       0.53920296 </v>
    <v>       0.33333333       0.83333333       0.53920296 </v>
    <v>       0.00000000       0.00000000       0.61486043 </v>
    <v>       0.50000000       0.00000000       0.61486043 </v>
    <v>       0.00000000       0.50000000       0.61486043 </v>
    <v>       0.50000000       0.50000000       0.61486043 </v>
   </varray>
  </structure>
  <varray name="forces" >
   <v>       0.01687361       0.00974199      -1.16052467 </v>
   <v>      -0.01961234       0.00833190       0.06414456 </v>
   <v>      -0.00259053      -0.02115073       0.06414456 </v>
   <v>       0.01140521       0.00658480       0.05851032 </v>
   <v>       0.13843107       0.07992321       0.40962250 </v>
   <v>      -0.13761310       0.08068315       0.19581545 </v>
   <v>       0.00106710      -0.15951802       0.19581545 </v>
   <v>      -0.00588668      -0.00339868      -0.07090445 </v>
   <v>      -0.13813041       0.08390623       0.30171557 </v>
   <v>       0.14247820       0.08225983       0.57801627 </v>
   <v>       0.00067171       0.00038781      -0.02911014 </v>
   <v>       0.00359972      -0.16157756       0.30171557 </v>
   <v>       0.01537472       0.00887660       0.06784271 </v>
   <v>      -0.02920879      -0.02448959       0.08249227 </v>
   <v>      -0.03581300      -0.01305076       0.08249227 </v>
   <v>       0.03895351       0.02248982      -1.14178822 </v>
  </varray>
  <varray name="stress" >
   <v>     -21.89538407      -0.04116641      -0.08602231 </v>
   <v>      -0.04116641     -21.84784920      -0.04966500 </v>
   <v>      -0.08602242      -0.04966507      -1.07712735 </v>
  </varray>
  <energy>
   <i name="e_fr_energy">    -92.00982092 </i>
   <i name="e_wo_entrp">    -91.99641688 </i>
   <i name="e_0_energy">     -0.04021210 </i>
  </energy>
  <time name="totalsc">  415.17  415.27</time>
  <eigenvalues>
   <array>
    <dimension dim="1">band</dimension>
    <dimension dim="2">kpoint</dimension>
    <dimension dim="3">spin</dimension>
    <field>eigene</field>
    <field>occ</field>
    <set>
     <set comment="spin 1">
      <set comment="kpoint 1">
       <r>  -10.1872    1.0000 </r>
       <r>   -8.9165    1.0000 </r>
       <r>   -7.8583    1.0000 </r>
       <r>   -7.7261    1.0000 </r>
       <r>   -7.4589    1.0000 </r>
       <r>   -7.4325    1.0000 </r>
       <r>   -7.4301    1.0000 </r>
       <r>   -7.3076    1.0000 </r>
       <r>   -7.2967    1.0000 </r>
       <r>   -7.2794    1.0000 </r>
       <r>   -6.8371    1.0000 </r>
       <r>   -6.8313    1.0000 </r>
       <r>   -6.8222    1.0000 </r>
       <r>   -6.8030    1.0000 </r>
       <r>   -6.7915    1.0000 </r>
       <r>   -6.5948    1.0000 </r>
       <r>   -6.5432    1.0000 </r>
       <r>   -6.5070    1.0000 </r>
       <r>   -6.4751    1.0000 </r>
       <r>   -5.7973    1.0000 </r>
       <r>   -5.7892    1.0000 </r>
       <r>   -5.6811    1.0000 </r>
       <r>   -4.9200    1.0000 </r>
       <r>   -4.9143    1.0000 </r>
       <r>   -4.8089    1.0000 </r>
       <r>   -4.6816    1.0000 </r>
       <r>   -4.6537    1.0000 </r>
       <r>   -4.6440    1.0000 </r>
       <r>   -4.6082    1.0000 </r>
       <r>   -4.5248    1.0000 </r>
       <r>   -4.3672    1.0000 </r>
       <r>   -4.3213    1.0000 </r>
       <r>   -4.2104    1.0000 </r>
       <r>   -4.1982    1.0000 </r>
       <r>   -4.0640    1.0000 </r>
       <r>   -4.0375    1.0000 </r>
       <r>   -3.9905    1.0000 </r>
       <r>   -3.9858    1.0000 </r>
       <r>   -3.9521    1.0000 </r>
       <r>   -3.8404    1.0000 </r>
       <r>   -3.6954    1.0000 </r>
       <r>   -3.6614    1.0000 </r>
       <r>   -3.5021    1.0000 </r>
       <r>   -3.4627    1.0000 </r>
       <r>   -3.3879    1.0000 </r>
       <r>   -3.1660    1.0000 </r>
       <r>   -3.1494    1.0000 </r>
       <r>   -2.9312    1.0000 </r>
       <r>   -2.9179    1.0000 </r>
       <r>   -2.7736    1.0000 </r>
       <r>   -2.7368    1.0000 </r>
       <r>   -2.3515    1.0000 </r>
       <r>   -2.3490    1.0000 </r>
       <r>   -2.1193    1.0000 </r>
       <r>   -2.1115    1.0000 </r>
       <r>   -1.8412    1.0000 </r>
       <r>   -1.8379    1.0000 </r>
       <r>   -1.6836    1.0000 </r>
       <r>   -1.6567    1.0000 </r>
       <r>   -1.5803    1.0000 </r>
       <r>   -1.5626    1.0000 </r>
       <r>   -1.5032    1.0000 </r>
       <r>   -1.2755    1.0025 </r>
       <r>   -1.1515    1.0184 </r>
       <r>   -1.1151    1.0267 </r>
       <r>   -1.1041    1.0291 </r>
       <r>   -1.0322    1.0330 </r>
       <r>   -1.0191    1.0289 </r>
       <r>   -0.9985    1.0176 </r>
       <r>   -0.9039    0.8507 </r>
       <r>   -0.8079    0.4879 </r>
       <r>   -0.7897    0.4114 </r>
       <r>   -0.7523    0.2640 </r>
       <r>   -0.7356    0.2056 </r>
       <r>   -0.7021    0.1071 </r>
       <r>   -0.6938    0.0870 </r>
       <r>   -0.6704    0.0396 </r>
       <r>   -0.5296   -0.0316 </r>
       <r>   -0.5133   -0.0282 </r>
       <r>   -0.4903   -0.0230 </r>
       <r>   -0.3394   -0.0021 </r>
       <r>   -0.2006   -0.0001 </r>
       <r>   -0.1016   -0.0000 </r>
       <r>   -0.0183   -0.0000 </r>
       <r>    0.0343   -0.0000 </r>
       <r>    0.0887   -0.0000 </r>
       <r>    0.3749   -0.0000 </r>
       <r>    0.4150   -0.0000 </r>
       <r>    1.2003   -0.0000 </r>
       <r>    1.4923   -0.0000 </r>
       <r>    1.6191   -0.0000 </r>
       <r>    1.6426   -0.0000 </r>
       <r>    1.7703   -0.0000 </r>
       <r>    1.7752   -0.0000 </r>
       <r>    2.5862   -0.0000 </r>
       <r>    2.5879   -0.0000 </r>
      </set>
      <set comment="kpoint 2">
       <r>  -10.1872    1.0000 </r>
       <r>   -8.9165    1.0000 </r>
       <r>   -7.8583    1.0000 </r>
       <r>   -7.7261    1.0000 </r>
       <r>   -7.4582    1.0000 </r>
       <r>   -7.4363    1.0000 </r>
       <r>   -7.4270    1.0000 </r>
       <r>   -7.3084    1.0000 </r>
       <r>   -7.2959    1.0000 </r>
       <r>   -7.2795    1.0000 </r>
       <r>   -6.8368    1.0000 </r>
       <r>   -6.8292    1.0000 </r>
       <r>   -6.8248    1.0000 </r>
       <r>   -6.8018    1.0000 </r>
       <r>   -6.7927    1.0000 </r>
       <r>   -6.5933    1.0000 </r>
       <r>   -6.5404    1.0000 </r>
       <r>   -6.5151    1.0000 </r>
       <r>   -6.4709    1.0000 </r>
       <r>   -5.7988    1.0000 </r>
       <r>   -5.7879    1.0000 </r>
       <r>   -5.6808    1.0000 </r>
       <r>   -4.9262    1.0000 </r>
       <r>   -4.9086    1.0000 </r>
       <r>   -4.8088    1.0000 </r>
       <r>   -4.6736    1.0000 </r>
       <r>   -4.6597    1.0000 </r>
       <r>   -4.6453    1.0000 </r>
       <r>   -4.6080    1.0000 </r>
       <r>   -4.5254    1.0000 </r>
       <r>   -4.3671    1.0000 </r>
       <r>   -4.3213    1.0000 </r>
       <r>   -4.2081    1.0000 </r>
       <r>   -4.2001    1.0000 </r>
       <r>   -4.0657    1.0000 </r>
       <r>   -4.0355    1.0000 </r>
       <r>   -3.9966    1.0000 </r>
       <r>   -3.9830    1.0000 </r>
       <r>   -3.9491    1.0000 </r>
       <r>   -3.8424    1.0000 </r>
       <r>   -3.6948    1.0000 </r>
       <r>   -3.6610    1.0000 </r>
       <r>   -3.4980    1.0000 </r>
       <r>   -3.4652    1.0000 </r>
       <r>   -3.3880    1.0000 </r>
       <r>   -3.1900    1.0000 </r>
       <r>   -3.1194    1.0000 </r>
       <r>   -2.9484    1.0000 </r>
       <r>   -2.8880    1.0000 </r>
       <r>   -2.8175    1.0000 </r>
       <r>   -2.7117    1.0000 </r>
       <r>   -2.3566    1.0000 </r>
       <r>   -2.3425    1.0000 </r>
       <r>   -2.1321    1.0000 </r>
       <r>   -2.1066    1.0000 </r>
       <r>   -1.8669    1.0000 </r>
       <r>   -1.8069    1.0000 </r>
       <r>   -1.6982    1.0000 </r>
       <r>   -1.6549    1.0000 </r>
       <r>   -1.5866    1.0000 </r>
       <r>   -1.5292    1.0000 </r>
       <r>   -1.4806    1.0000 </r>
       <r>   -1.3084    1.0012 </r>
       <r>   -1.1772    1.0132 </r>
       <r>   -1.1341    1.0223 </r>
       <r>   -1.0936    1.0312 </r>
       <r>   -1.0603    1.0354 </r>
       <r>   -0.9973    1.0167 </r>
       <r>   -0.9439    0.9474 </r>
       <r>   -0.8962    0.8275 </r>
       <r>   -0.8176    0.5289 </r>
       <r>   -0.7825    0.3819 </r>
       <r>   -0.7712    0.3365 </r>
       <r>   -0.7384    0.2149 </r>
       <r>   -0.7027    0.1086 </r>
       <r>   -0.6989    0.0992 </r>
       <r>   -0.6615    0.0250 </r>
       <r>   -0.5292   -0.0315 </r>
       <r>   -0.5221   -0.0301 </r>
       <r>   -0.4909   -0.0231 </r>
       <r>   -0.3526   -0.0028 </r>
       <r>   -0.2017   -0.0001 </r>
       <r>   -0.0765   -0.0000 </r>
       <r>   -0.0013   -0.0000 </r>
       <r>    0.0327   -0.0000 </r>
       <r>    0.0811   -0.0000 </r>
       <r>    0.3262   -0.0000 </r>
       <r>    0.4503   -0.0000 </r>
       <r>    1.2015   -0.0000 </r>
       <r>    1.4903   -0.0000 </r>
       <r>    1.6306   -0.0000 </r>
       <r>    1.6338   -0.0000 </r>
       <r>    1.7343   -0.0000 </r>
       <r>    1.8097   -0.0000 </r>
       <r>    2.5802   -0.0000 </r>
       <r>    2.5928   -0.0000 </r>
      </set>
      <set comment="kpoint 3">
       <r>   -9.9832    1.0000 </r>
       <r>   -8.7149    1.0000 </r>
       <r>   -7.6542    1.0000 </r>
       <r>   -7.5310    1.0000 </r>
       <r>   -7.4400    1.0000 </r>
       <r>   -7.3618    1.0000 </r>
       <r>   -7.2440    1.0000 </r>
       <r>   -7.2252    1.0000 </r>
       <r>   -7.1764    1.0000 </r>
       <r>   -7.1089    1.0000 </r>
       <r>   -6.7516    1.0000 </r>
       <r>   -6.7276    1.0000 </r>
       <r>   -6.7226    1.0000 </r>
       <r>   -6.7107    1.0000 </r>
       <r>   -6.6532    1.0000 </r>
       <r>   -6.4816    1.0000 </r>
       <r>   -6.4185    1.0000 </r>
       <r>   -6.3728    1.0000 </r>
       <r>   -6.2923    1.0000 </r>
       <r>   -5.7405    1.0000 </r>
       <r>   -5.7241    1.0000 </r>
       <r>   -5.6268    1.0000 </r>
       <r>   -4.9675    1.0000 </r>
       <r>   -4.9037    1.0000 </r>
       <r>   -4.8483    1.0000 </r>
       <r>   -4.7199    1.0000 </r>
       <r>   -4.6695    1.0000 </r>
       <r>   -4.5914    1.0000 </r>
       <r>   -4.5763    1.0000 </r>
       <r>   -4.5405    1.0000 </r>
       <r>   -4.4749    1.0000 </r>
       <r>   -4.2073    1.0000 </r>
       <r>   -4.1722    1.0000 </r>
       <r>   -4.1405    1.0000 </r>
       <r>   -4.1101    1.0000 </r>
       <r>   -4.0357    1.0000 </r>
       <r>   -4.0053    1.0000 </r>
       <r>   -3.9845    1.0000 </r>
       <r>   -3.9254    1.0000 </r>
       <r>   -3.8733    1.0000 </r>
       <r>   -3.7819    1.0000 </r>
       <r>   -3.6449    1.0000 </r>
       <r>   -3.6187    1.0000 </r>
       <r>   -3.5452    1.0000 </r>
       <r>   -3.5181    1.0000 </r>
       <r>   -3.4752    1.0000 </r>
       <r>   -3.2846    1.0000 </r>
       <r>   -3.1450    1.0000 </r>
       <r>   -2.9485    1.0000 </r>
       <r>   -2.8258    1.0000 </r>
       <r>   -2.6808    1.0000 </r>
       <r>   -2.4719    1.0000 </r>
       <r>   -2.4377    1.0000 </r>
       <r>   -2.3061    1.0000 </r>
       <r>   -2.1524    1.0000 </r>
       <r>   -2.0201    1.0000 </r>
       <r>   -2.0003    1.0000 </r>
       <r>   -1.8919    1.0000 </r>
       <r>   -1.8725    1.0000 </r>
       <r>   -1.8089    1.0000 </r>
       <r>   -1.7551    1.0000 </r>
       <r>   -1.6914    1.0000 </r>
       <r>   -1.6375    1.0000 </r>
       <r>   -1.5604    1.0000 </r>
       <r>   -1.5166    1.0000 </r>
       <r>   -1.4457    1.0000 </r>
       <r>   -1.2737    1.0025 </r>
       <r>   -1.1988    1.0097 </r>
       <r>   -1.1539    1.0179 </r>
       <r>   -1.0701    1.0347 </r>
       <r>   -1.0520    1.0354 </r>
       <r>   -1.0229    1.0303 </r>
       <r>   -0.9586    0.9728 </r>
       <r>   -0.9484    0.9557 </r>
       <r>   -0.8569    0.6896 </r>
       <r>   -0.8339    0.5971 </r>
       <r>   -0.7975    0.4441 </r>
       <r>   -0.7617    0.2992 </r>
       <r>   -0.7382    0.2144 </r>
       <r>   -0.6357   -0.0069 </r>
       <r>   -0.5605   -0.0354 </r>
       <r>   -0.4780   -0.0202 </r>
       <r>   -0.3646   -0.0035 </r>
       <r>   -0.2998   -0.0009 </r>
       <r>   -0.1780   -0.0000 </r>
       <r>    0.1819   -0.0000 </r>
       <r>    0.2624   -0.0000 </r>
       <r>    0.8184   -0.0000 </r>
       <r>    0.8444   -0.0000 </r>
       <r>    1.1002   -0.0000 </r>
       <r>    1.2846   -0.0000 </r>
       <r>    1.6218   -0.0000 </r>
       <r>    2.1410   -0.0000 </r>
       <r>    2.5233   -0.0000 </r>
       <r>    3.0130   -0.0000 </r>
       <r>    3.3669   -0.0000 </r>
      </set>
      <set comment="kpoint 4">
       <r>   -9.9832    1.0000 </r>
       <r>   -8.7149    1.0000 </r>
       <r>   -7.6542    1.0000 </r>
       <r>   -7.5310    1.0000 </r>
       <r>   -7.4400    1.0000 </r>
       <r>   -7.3616    1.0000 </r>
       <r>   -7.2439    1.0000 </r>
       <r>   -7.2249    1.0000 </r>
       <r>   -7.1769    1.0000 </r>
       <r>   -7.1090    1.0000 </r>
       <r>   -6.7518    1.0000 </r>
       <r>   -6.7302    1.0000 </r>
       <r>   -6.7186    1.0000 </r>
       <r>   -6.7127    1.0000 </r>
       <r>   -6.6518    1.0000 </r>
       <r>   -6.4847    1.0000 </r>
       <r>   -6.4206    1.0000 </r>
       <r>   -6.3642    1.0000 </r>
       <r>   -6.2966    1.0000 </r>
       <r>   -5.7348    1.0000 </r>
       <r>   -5.7290    1.0000 </r>
       <r>   -5.6276    1.0000 </r>
       <r>   -4.9611    1.0000 </r>
       <r>   -4.9098    1.0000 </r>
       <r>   -4.8473    1.0000 </r>
       <r>   -4.7287    1.0000 </r>
       <r>   -4.6654    1.0000 </r>
       <r>   -4.5885    1.0000 </r>
       <r>   -4.5762    1.0000 </r>
       <r>   -4.5390    1.0000 </r>
       <r>   -4.4756    1.0000 </r>
       <r>   -4.2083    1.0000 </r>
       <r>   -4.1720    1.0000 </r>
       <r>   -4.1431    1.0000 </r>
       <r>   -4.1064    1.0000 </r>
       <r>   -4.0305    1.0000 </r>
       <r>   -4.0101    1.0000 </r>
       <r>   -3.9772    1.0000 </r>
       <r>   -3.9284    1.0000 </r>
       <r>   -3.8764    1.0000 </r>
       <r>   -3.7838    1.0000 </r>
       <r>   -3.6542    1.0000 </r>
       <r>   -3.6042    1.0000 </r>
       <r>   -3.5527    1.0000 </r>
       <r>   -3.5187    1.0000 </r>
       <r>   -3.4665    1.0000 </r>
       <r>   -3.3043    1.0000 </r>
       <r>   -3.1309    1.0000 </r>
       <r>   -2.9560    1.0000 </r>
       <r>   -2.8079    1.0000 </r>
       <r>   -2.6935    1.0000 </r>
       <r>   -2.4746    1.0000 </r>
       <r>   -2.4348    1.0000 </r>
       <r>   -2.2833    1.0000 </r>
       <r>   -2.1669    1.0000 </r>
       <r>   -2.0195    1.0000 </r>
       <r>   -1.9982    1.0000 </r>
       <r>   -1.9176    1.0000 </r>
       <r>   -1.8474    1.0000 </r>
       <r>   -1.8139    1.0000 </r>
       <r>   -1.7670    1.0000 </r>
       <r>   -1.7048    1.0000 </r>
       <r>   -1.6111    1.0000 </r>
       <r>   -1.5796    1.0000 </r>
       <r>   -1.5133    1.0000 </r>
       <r>   -1.4360    1.0000 </r>
       <r>   -1.2743    1.0025 </r>
       <r>   -1.2097    1.0081 </r>
       <r>   -1.1401    1.0209 </r>
       <r>   -1.0806    1.0335 </r>
       <r>   -1.0334    1.0332 </r>
       <r>   -1.0175    1.0283 </r>
       <r>   -0.9650    0.9824 </r>
       <r>   -0.9418    0.9434 </r>
       <r>   -0.8775    0.7657 </r>
       <r>   -0.8320    0.5893 </r>
       <r>   -0.8056    0.4784 </r>
       <r>   -0.7582    0.2860 </r>
       <r>   -0.7261    0.1750 </r>
       <r>   -0.6439    0.0017 </r>
       <r>   -0.5428   -0.0337 </r>
       <r>   -0.4520   -0.0147 </r>
       <r>   -0.4055   -0.0073 </r>
       <r>   -0.2979   -0.0009 </r>
       <r>   -0.1850   -0.0000 </r>
       <r>    0.1855   -0.0000 </r>
       <r>    0.2710   -0.0000 </r>
       <r>    0.8112   -0.0000 </r>
       <r>    0.8465   -0.0000 </r>
       <r>    1.0993   -0.0000 </r>
       <r>    1.2865   -0.0000 </r>
       <r>    1.6212   -0.0000 </r>
       <r>    2.1422   -0.0000 </r>
       <r>    2.5228   -0.0000 </r>
       <r>    3.0128   -0.0000 </r>
       <r>    3.3669   -0.0000 </r>
      </set>
      <set comment="kpoint 5">
       <r>   -9.9832    1.0000 </r>
       <r>   -8.7149    1.0000 </r>
       <r>   -7.6542    1.0000 </r>
       <r>   -7.5310    1.0000 </r>
       <r>   -7.4399    1.0000 </r>
       <r>   -7.3622    1.0000 </r>
       <r>   -7.2439    1.0000 </r>
       <r>   -7.2256    1.0000 </r>
       <r>   -7.1763    1.0000 </r>
       <r>   -7.1087    1.0000 </r>
       <r>   -6.7514    1.0000 </r>
       <r>   -6.7274    1.0000 </r>
       <r>   -6.7183    1.0000 </r>
       <r>   -6.7166    1.0000 </r>
       <r>   -6.6518    1.0000 </r>
       <r>   -6.4766    1.0000 </r>
       <r>   -6.4263    1.0000 </r>
       <r>   -6.3717    1.0000 </r>
       <r>   -6.2905    1.0000 </r>
       <r>   -5.7428    1.0000 </r>
       <r>   -5.7230    1.0000 </r>
       <r>   -5.6255    1.0000 </r>
       <r>   -4.9711    1.0000 </r>
       <r>   -4.9000    1.0000 </r>
       <r>   -4.8493    1.0000 </r>
       <r>   -4.7169    1.0000 </r>
       <r>   -4.6697    1.0000 </r>
       <r>   -4.5866    1.0000 </r>
       <r>   -4.5789    1.0000 </r>
       <r>   -4.5462    1.0000 </r>
       <r>   -4.4726    1.0000 </r>
       <r>   -4.2033    1.0000 </r>
       <r>   -4.1731    1.0000 </r>
       <r>   -4.1490    1.0000 </r>
       <r>   -4.1038    1.0000 </r>
       <r>   -4.0406    1.0000 </r>
       <r>   -4.0178    1.0000 </r>
       <r>   -3.9799    1.0000 </r>
       <r>   -3.9170    1.0000 </r>
       <r>   -3.8730    1.0000 </r>
       <r>   -3.7768    1.0000 </r>
       <r>   -3.6477    1.0000 </r>
       <r>   -3.6269    1.0000 </r>
       <r>   -3.5419    1.0000 </r>
       <r>   -3.5093    1.0000 </r>
       <r>   -3.4716    1.0000 </r>
       <r>   -3.3024    1.0000 </r>
       <r>   -3.1082    1.0000 </r>
       <r>   -2.9799    1.0000 </r>
       <r>   -2.8289    1.0000 </r>
       <r>   -2.6681    1.0000 </r>
       <r>   -2.4805    1.0000 </r>
       <r>   -2.4260    1.0000 </r>
       <r>   -2.3363    1.0000 </r>
       <r>   -2.1322    1.0000 </r>
       <r>   -2.0376    1.0000 </r>
       <r>   -1.9794    1.0000 </r>
       <r>   -1.9334    1.0000 </r>
       <r>   -1.8464    1.0000 </r>
       <r>   -1.7983    1.0000 </r>
       <r>   -1.7146    1.0000 </r>
       <r>   -1.7022    1.0000 </r>
       <r>   -1.6433    1.0000 </r>
       <r>   -1.5517    1.0000 </r>
       <r>   -1.5345    1.0000 </r>
       <r>   -1.4354    1.0000 </r>
       <r>   -1.2861    1.0020 </r>
       <r>   -1.2206    1.0068 </r>
       <r>   -1.1557    1.0175 </r>
       <r>   -1.0939    1.0312 </r>
       <r>   -1.0508    1.0354 </r>
       <r>   -0.9876    1.0086 </r>
       <r>   -0.9609    0.9764 </r>
       <r>   -0.9221    0.8998 </r>
       <r>   -0.8520    0.6705 </r>
       <r>   -0.8429    0.6340 </r>
       <r>   -0.8241    0.5565 </r>
       <r>   -0.7770    0.3595 </r>
       <r>   -0.6957    0.0913 </r>
       <r>   -0.6474    0.0057 </r>
       <r>   -0.5859   -0.0337 </r>
       <r>   -0.4657   -0.0175 </r>
       <r>   -0.3584   -0.0031 </r>
       <r>   -0.2912   -0.0007 </r>
       <r>   -0.1872   -0.0000 </r>
       <r>    0.1839   -0.0000 </r>
       <r>    0.2631   -0.0000 </r>
       <r>    0.8148   -0.0000 </r>
       <r>    0.8477   -0.0000 </r>
       <r>    1.0980   -0.0000 </r>
       <r>    1.2844   -0.0000 </r>
       <r>    1.6226   -0.0000 </r>
       <r>    2.1409   -0.0000 </r>
       <r>    2.5234   -0.0000 </r>
       <r>    3.0130   -0.0000 </r>
       <r>    3.3681   -0.0000 </r>
      </set>
      <set comment="kpoint 6">
       <r>   -9.5295    1.0000 </r>
       <r>   -8.2790    1.0000 </r>
       <r>   -7.5390    1.0000 </r>
       <r>   -7.2290    1.0000 </r>
       <r>   -7.1219    1.0000 </r>
       <r>   -7.1098    1.0000 </r>
       <r>   -7.1004    1.0000 </r>
       <r>   -6.9061    1.0000 </r>
       <r>   -6.8749    1.0000 </r>
       <r>   -6.7989    1.0000 </r>
       <r>   -6.6703    1.0000 </r>
       <r>   -6.5089    1.0000 </r>
       <r>   -6.4934    1.0000 </r>
       <r>   -6.4501    1.0000 </r>
       <r>   -6.3452    1.0000 </r>
       <r>   -6.2792    1.0000 </r>
       <r>   -6.1248    1.0000 </r>
       <r>   -6.0387    1.0000 </r>
       <r>   -5.9157    1.0000 </r>
       <r>   -5.6165    1.0000 </r>
       <r>   -5.5729    1.0000 </r>
       <r>   -5.5102    1.0000 </r>
       <r>   -5.1045    1.0000 </r>
       <r>   -5.0444    1.0000 </r>
       <r>   -4.9467    1.0000 </r>
       <r>   -4.8462    1.0000 </r>
       <r>   -4.7978    1.0000 </r>
       <r>   -4.7204    1.0000 </r>
       <r>   -4.5263    1.0000 </r>
       <r>   -4.4862    1.0000 </r>
       <r>   -4.4271    1.0000 </r>
       <r>   -4.2897    1.0000 </r>
       <r>   -4.2647    1.0000 </r>
       <r>   -4.2374    1.0000 </r>
       <r>   -4.1348    1.0000 </r>
       <r>   -4.0790    1.0000 </r>
       <r>   -4.0077    1.0000 </r>
       <r>   -3.9268    1.0000 </r>
       <r>   -3.9018    1.0000 </r>
       <r>   -3.8738    1.0000 </r>
       <r>   -3.8326    1.0000 </r>
       <r>   -3.8075    1.0000 </r>
       <r>   -3.7867    1.0000 </r>
       <r>   -3.7771    1.0000 </r>
       <r>   -3.6359    1.0000 </r>
       <r>   -3.5356    1.0000 </r>
       <r>   -3.4573    1.0000 </r>
       <r>   -3.2254    1.0000 </r>
       <r>   -3.0669    1.0000 </r>
       <r>   -2.9985    1.0000 </r>
       <r>   -2.8916    1.0000 </r>
       <r>   -2.7947    1.0000 </r>
       <r>   -2.7205    1.0000 </r>
       <r>   -2.6895    1.0000 </r>
       <r>   -2.6012    1.0000 </r>
       <r>   -2.5823    1.0000 </r>
       <r>   -2.5191    1.0000 </r>
       <r>   -2.4751    1.0000 </r>
       <r>   -2.3786    1.0000 </r>
       <r>   -2.3449    1.0000 </r>
       <r>   -2.1967    1.0000 </r>
       <r>   -2.1217    1.0000 </r>
       <r>   -2.0239    1.0000 </r>
       <r>   -1.9119    1.0000 </r>
       <r>   -1.8672    1.0000 </r>
       <r>   -1.8203    1.0000 </r>
       <r>   -1.6854    1.0000 </r>
       <r>   -1.6121    1.0000 </r>
       <r>   -1.5584    1.0000 </r>
       <r>   -1.5106    1.0000 </r>
       <r>   -1.4752    1.0000 </r>
       <r>   -1.3566    1.0004 </r>
       <r>   -1.2730    1.0026 </r>
       <r>   -1.2631    1.0031 </r>
       <r>   -1.2104    1.0080 </r>
       <r>   -1.1226    1.0250 </r>
       <r>   -1.0275    1.0318 </r>
       <r>   -0.9790    0.9999 </r>
       <r>   -0.9160    0.8842 </r>
       <r>   -0.8099    0.4963 </r>
       <r>   -0.7588    0.2881 </r>
       <r>   -0.7244    0.1696 </r>
       <r>   -0.6400   -0.0025 </r>
       <r>   -0.5551   -0.0350 </r>
       <r>   -0.4568   -0.0156 </r>
       <r>    0.3098   -0.0000 </r>
       <r>    0.3704   -0.0000 </r>
       <r>    0.5433   -0.0000 </r>
       <r>    0.9395   -0.0000 </r>
       <r>    1.6942   -0.0000 </r>
       <r>    1.8994   -0.0000 </r>
       <r>    1.9405   -0.0000 </r>
       <r>    2.2868   -0.0000 </r>
       <r>    2.6651   -0.0000 </r>
       <r>    3.2347   -0.0000 </r>
       <r>    3.9135   -0.0000 </r>
      </set>
      <set comment="kpoint 7">
       <r>   -9.5295    1.0000 </r>
       <r>   -8.2790    1.0000 </r>
       <r>   -7.5389    1.0000 </r>
       <r>   -7.2288    1.0000 </r>
       <r>   -7.1199    1.0000 </r>
       <r>   -7.1107    1.0000 </r>
       <r>   -7.1003    1.0000 </r>
       <r>   -6.9049    1.0000 </r>
       <r>   -6.8767    1.0000 </r>
       <r>   -6.7994    1.0000 </r>
       <r>   -6.6705    1.0000 </r>
       <r>   -6.5088    1.0000 </r>
       <r>   -6.4924    1.0000 </r>
       <r>   -6.4518    1.0000 </r>
       <r>   -6.3432    1.0000 </r>
       <r>   -6.2826    1.0000 </r>
       <r>   -6.1278    1.0000 </r>
       <r>   -6.0248    1.0000 </r>
       <r>   -5.9271    1.0000 </r>
       <r>   -5.6013    1.0000 </r>
       <r>   -5.5812    1.0000 </r>
       <r>   -5.5168    1.0000 </r>
       <r>   -5.0970    1.0000 </r>
       <r>   -5.0452    1.0000 </r>
       <r>   -4.9511    1.0000 </r>
       <r>   -4.8534    1.0000 </r>
       <r>   -4.7916    1.0000 </r>
       <r>   -4.7251    1.0000 </r>
       <r>   -4.5305    1.0000 </r>
       <r>   -4.4799    1.0000 </r>
       <r>   -4.4240    1.0000 </r>
       <r>   -4.2909    1.0000 </r>
       <r>   -4.2583    1.0000 </r>
       <r>   -4.2267    1.0000 </r>
       <r>   -4.1407    1.0000 </r>
       <r>   -4.0787    1.0000 </r>
       <r>   -4.0173    1.0000 </r>
       <r>   -3.9321    1.0000 </r>
       <r>   -3.8891    1.0000 </r>
       <r>   -3.8672    1.0000 </r>
       <r>   -3.8315    1.0000 </r>
       <r>   -3.8180    1.0000 </r>
       <r>   -3.7916    1.0000 </r>
       <r>   -3.7708    1.0000 </r>
       <r>   -3.6601    1.0000 </r>
       <r>   -3.5413    1.0000 </r>
       <r>   -3.4374    1.0000 </r>
       <r>   -3.2286    1.0000 </r>
       <r>   -3.0538    1.0000 </r>
       <r>   -3.0040    1.0000 </r>
       <r>   -2.8741    1.0000 </r>
       <r>   -2.8013    1.0000 </r>
       <r>   -2.7330    1.0000 </r>
       <r>   -2.6817    1.0000 </r>
       <r>   -2.6023    1.0000 </r>
       <r>   -2.5831    1.0000 </r>
       <r>   -2.5120    1.0000 </r>
       <r>   -2.4648    1.0000 </r>
       <r>   -2.4084    1.0000 </r>
       <r>   -2.3240    1.0000 </r>
       <r>   -2.2239    1.0000 </r>
       <r>   -2.1451    1.0000 </r>
       <r>   -1.9567    1.0000 </r>
       <r>   -1.9294    1.0000 </r>
       <r>   -1.8921    1.0000 </r>
       <r>   -1.8000    1.0000 </r>
       <r>   -1.6756    1.0000 </r>
       <r>   -1.6040    1.0000 </r>
       <r>   -1.5840    1.0000 </r>
       <r>   -1.5217    1.0000 </r>
       <r>   -1.4732    1.0000 </r>
       <r>   -1.3941    1.0001 </r>
       <r>   -1.2803    1.0022 </r>
       <r>   -1.2308    1.0057 </r>
       <r>   -1.1519    1.0183 </r>
       <r>   -1.1099    1.0278 </r>
       <r>   -1.0734    1.0344 </r>
       <r>   -0.9862    1.0073 </r>
       <r>   -0.8939    0.8204 </r>
       <r>   -0.8318    0.5884 </r>
       <r>   -0.7895    0.4108 </r>
       <r>   -0.7199    0.1562 </r>
       <r>   -0.6202   -0.0195 </r>
       <r>   -0.5035   -0.0260 </r>
       <r>   -0.4976   -0.0246 </r>
       <r>    0.3093   -0.0000 </r>
       <r>    0.3699   -0.0000 </r>
       <r>    0.5454   -0.0000 </r>
       <r>    0.9367   -0.0000 </r>
       <r>    1.7119   -0.0000 </r>
       <r>    1.8936   -0.0000 </r>
       <r>    1.9134   -0.0000 </r>
       <r>    2.3049   -0.0000 </r>
       <r>    2.6652   -0.0000 </r>
       <r>    3.2327   -0.0000 </r>
       <r>    3.9133   -0.0000 </r>
      </set>
      <set comment="kpoint 8">
       <r>   -9.5295    1.0000 </r>
       <r>   -8.2790    1.0000 </r>
       <r>   -7.5390    1.0000 </r>
       <r>   -7.2291    1.0000 </r>
       <r>   -7.1222    1.0000 </r>
       <r>   -7.1093    1.0000 </r>
       <r>   -7.1007    1.0000 </r>
       <r>   -6.9064    1.0000 </r>
       <r>   -6.8749    1.0000 </r>
       <r>   -6.7991    1.0000 </r>
       <r>   -6.6704    1.0000 </r>
       <r>   -6.5100    1.0000 </r>
       <r>   -6.4906    1.0000 </r>
       <r>   -6.4516    1.0000 </r>
       <r>   -6.3398    1.0000 </r>
       <r>   -6.2850    1.0000 </r>
       <r>   -6.1249    1.0000 </r>
       <r>   -6.0373    1.0000 </r>
       <r>   -5.9162    1.0000 </r>
       <r>   -5.6162    1.0000 </r>
       <r>   -5.5732    1.0000 </r>
       <r>   -5.5098    1.0000 </r>
       <r>   -5.1027    1.0000 </r>
       <r>   -5.0470    1.0000 </r>
       <r>   -4.9460    1.0000 </r>
       <r>   -4.8455    1.0000 </r>
       <r>   -4.7991    1.0000 </r>
       <r>   -4.7205    1.0000 </r>
       <r>   -4.5246    1.0000 </r>
       <r>   -4.4815    1.0000 </r>
       <r>   -4.4316    1.0000 </r>
       <r>   -4.2847    1.0000 </r>
       <r>   -4.2682    1.0000 </r>
       <r>   -4.2448    1.0000 </r>
       <r>   -4.1324    1.0000 </r>
       <r>   -4.0795    1.0000 </r>
       <r>   -4.0025    1.0000 </r>
       <r>   -3.9387    1.0000 </r>
       <r>   -3.9047    1.0000 </r>
       <r>   -3.8635    1.0000 </r>
       <r>   -3.8234    1.0000 </r>
       <r>   -3.8169    1.0000 </r>
       <r>   -3.7881    1.0000 </r>
       <r>   -3.7753    1.0000 </r>
       <r>   -3.6326    1.0000 </r>
       <r>   -3.5308    1.0000 </r>
       <r>   -3.4567    1.0000 </r>
       <r>   -3.2267    1.0000 </r>
       <r>   -3.0768    1.0000 </r>
       <r>   -3.0005    1.0000 </r>
       <r>   -2.8894    1.0000 </r>
       <r>   -2.7828    1.0000 </r>
       <r>   -2.7351    1.0000 </r>
       <r>   -2.6790    1.0000 </r>
       <r>   -2.5996    1.0000 </r>
       <r>   -2.5883    1.0000 </r>
       <r>   -2.5311    1.0000 </r>
       <r>   -2.4768    1.0000 </r>
       <r>   -2.3908    1.0000 </r>
       <r>   -2.3248    1.0000 </r>
       <r>   -2.1847    1.0000 </r>
       <r>   -2.1021    1.0000 </r>
       <r>   -2.0598    1.0000 </r>
       <r>   -1.8955    1.0000 </r>
       <r>   -1.8524    1.0000 </r>
       <r>   -1.8184    1.0000 </r>
       <r>   -1.7155    1.0000 </r>
       <r>   -1.5995    1.0000 </r>
       <r>   -1.5466    1.0000 </r>
       <r>   -1.5240    1.0000 </r>
       <r>   -1.4600    1.0000 </r>
       <r>   -1.3880    1.0002 </r>
       <r>   -1.2770    1.0024 </r>
       <r>   -1.2654    1.0030 </r>
       <r>   -1.1983    1.0097 </r>
       <r>   -1.1146    1.0268 </r>
       <r>   -1.0184    1.0287 </r>
       <r>   -0.9811    1.0021 </r>
       <r>   -0.9157    0.8835 </r>
       <r>   -0.8117    0.5040 </r>
       <r>   -0.7537    0.2690 </r>
       <r>   -0.7315    0.1920 </r>
       <r>   -0.6553    0.0160 </r>
       <r>   -0.5458   -0.0341 </r>
       <r>   -0.4547   -0.0152 </r>
       <r>    0.3098   -0.0000 </r>
       <r>    0.3714   -0.0000 </r>
       <r>    0.5423   -0.0000 </r>
       <r>    0.9385   -0.0000 </r>
       <r>    1.6942   -0.0000 </r>
       <r>    1.9098   -0.0000 </r>
       <r>    1.9313   -0.0000 </r>
       <r>    2.2872   -0.0000 </r>
       <r>    2.6637   -0.0000 </r>
       <r>    3.2358   -0.0000 </r>
       <r>    3.9135   -0.0000 </r>
      </set>
      <set comment="kpoint 9">
       <r>   -8.8904    1.0000 </r>
       <r>   -7.9056    1.0000 </r>
       <r>   -7.7166    1.0000 </r>
       <r>   -7.1414    1.0000 </r>
       <r>   -6.7868    1.0000 </r>
       <r>   -6.7705    1.0000 </r>
       <r>   -6.6102    1.0000 </r>
       <r>   -6.5705    1.0000 </r>
       <r>   -6.5404    1.0000 </r>
       <r>   -6.5310    1.0000 </r>
       <r>   -6.4827    1.0000 </r>
       <r>   -6.2372    1.0000 </r>
       <r>   -6.1808    1.0000 </r>
       <r>   -6.0716    1.0000 </r>
       <r>   -6.0552    1.0000 </r>
       <r>   -5.9860    1.0000 </r>
       <r>   -5.8376    1.0000 </r>
       <r>   -5.6914    1.0000 </r>
       <r>   -5.5378    1.0000 </r>
       <r>   -5.4343    1.0000 </r>
       <r>   -5.3911    1.0000 </r>
       <r>   -5.3513    1.0000 </r>
       <r>   -5.2831    1.0000 </r>
       <r>   -5.2012    1.0000 </r>
       <r>   -5.0594    1.0000 </r>
       <r>   -5.0230    1.0000 </r>
       <r>   -4.9715    1.0000 </r>
       <r>   -4.7703    1.0000 </r>
       <r>   -4.7184    1.0000 </r>
       <r>   -4.6724    1.0000 </r>
       <r>   -4.6410    1.0000 </r>
       <r>   -4.5074    1.0000 </r>
       <r>   -4.4579    1.0000 </r>
       <r>   -4.4275    1.0000 </r>
       <r>   -4.3474    1.0000 </r>
       <r>   -4.2220    1.0000 </r>
       <r>   -4.1320    1.0000 </r>
       <r>   -4.0922    1.0000 </r>
       <r>   -3.9794    1.0000 </r>
       <r>   -3.9001    1.0000 </r>
       <r>   -3.7918    1.0000 </r>
       <r>   -3.7751    1.0000 </r>
       <r>   -3.7131    1.0000 </r>
       <r>   -3.6791    1.0000 </r>
       <r>   -3.6396    1.0000 </r>
       <r>   -3.5870    1.0000 </r>
       <r>   -3.5517    1.0000 </r>
       <r>   -3.4962    1.0000 </r>
       <r>   -3.3764    1.0000 </r>
       <r>   -3.3190    1.0000 </r>
       <r>   -3.2801    1.0000 </r>
       <r>   -3.2304    1.0000 </r>
       <r>   -3.1835    1.0000 </r>
       <r>   -3.0325    1.0000 </r>
       <r>   -2.9941    1.0000 </r>
       <r>   -2.9129    1.0000 </r>
       <r>   -2.8451    1.0000 </r>
       <r>   -2.7839    1.0000 </r>
       <r>   -2.7400    1.0000 </r>
       <r>   -2.5374    1.0000 </r>
       <r>   -2.4841    1.0000 </r>
       <r>   -2.3881    1.0000 </r>
       <r>   -2.3424    1.0000 </r>
       <r>   -2.2789    1.0000 </r>
       <r>   -2.1803    1.0000 </r>
       <r>   -2.1534    1.0000 </r>
       <r>   -2.1036    1.0000 </r>
       <r>   -1.9661    1.0000 </r>
       <r>   -1.9313    1.0000 </r>
       <r>   -1.8806    1.0000 </r>
       <r>   -1.8669    1.0000 </r>
       <r>   -1.7750    1.0000 </r>
       <r>   -1.6372    1.0000 </r>
       <r>   -1.4269    1.0001 </r>
       <r>   -1.3909    1.0002 </r>
       <r>   -1.3086    1.0012 </r>
       <r>   -1.2077    1.0084 </r>
       <r>   -1.0521    1.0354 </r>
       <r>   -0.9340    0.9271 </r>
       <r>   -0.8445    0.6405 </r>
       <r>   -0.8021    0.4634 </r>
       <r>   -0.7171    0.1479 </r>
       <r>   -0.7045    0.1132 </r>
       <r>   -0.5649   -0.0355 </r>
       <r>   -0.4735   -0.0192 </r>
       <r>   -0.2095   -0.0001 </r>
       <r>    0.6851   -0.0000 </r>
       <r>    1.0152   -0.0000 </r>
       <r>    1.0770   -0.0000 </r>
       <r>    1.7753   -0.0000 </r>
       <r>    1.9639   -0.0000 </r>
       <r>    2.1169   -0.0000 </r>
       <r>    2.4442   -0.0000 </r>
       <r>    3.0319   -0.0000 </r>
       <r>    3.5831   -0.0000 </r>
       <r>    4.0022   -0.0000 </r>
      </set>
      <set comment="kpoint 10">
       <r>   -8.8903    1.0000 </r>
       <r>   -7.9053    1.0000 </r>
       <r>   -7.7168    1.0000 </r>
       <r>   -7.1420    1.0000 </r>
       <r>   -6.7840    1.0000 </r>
       <r>   -6.7701    1.0000 </r>
       <r>   -6.6031    1.0000 </r>
       <r>   -6.5615    1.0000 </r>
       <r>   -6.5511    1.0000 </r>
       <r>   -6.5396    1.0000 </r>
       <r>   -6.4823    1.0000 </r>
       <r>   -6.2374    1.0000 </r>
       <r>   -6.1800    1.0000 </r>
       <r>   -6.0758    1.0000 </r>
       <r>   -6.0547    1.0000 </r>
       <r>   -5.9842    1.0000 </r>
       <r>   -5.8356    1.0000 </r>
       <r>   -5.6847    1.0000 </r>
       <r>   -5.5497    1.0000 </r>
       <r>   -5.4417    1.0000 </r>
       <r>   -5.3816    1.0000 </r>
       <r>   -5.3477    1.0000 </r>
       <r>   -5.2997    1.0000 </r>
       <r>   -5.1815    1.0000 </r>
       <r>   -5.0504    1.0000 </r>
       <r>   -5.0290    1.0000 </r>
       <r>   -4.9758    1.0000 </r>
       <r>   -4.7750    1.0000 </r>
       <r>   -4.7148    1.0000 </r>
       <r>   -4.6775    1.0000 </r>
       <r>   -4.6517    1.0000 </r>
       <r>   -4.5136    1.0000 </r>
       <r>   -4.4537    1.0000 </r>
       <r>   -4.4038    1.0000 </r>
       <r>   -4.3404    1.0000 </r>
       <r>   -4.2313    1.0000 </r>
       <r>   -4.1402    1.0000 </r>
       <r>   -4.0800    1.0000 </r>
       <r>   -3.9772    1.0000 </r>
       <r>   -3.9062    1.0000 </r>
       <r>   -3.8036    1.0000 </r>
       <r>   -3.7668    1.0000 </r>
       <r>   -3.7232    1.0000 </r>
       <r>   -3.7003    1.0000 </r>
       <r>   -3.6198    1.0000 </r>
       <r>   -3.5919    1.0000 </r>
       <r>   -3.5512    1.0000 </r>
       <r>   -3.4767    1.0000 </r>
       <r>   -3.3683    1.0000 </r>
       <r>   -3.3322    1.0000 </r>
       <r>   -3.3000    1.0000 </r>
       <r>   -3.2226    1.0000 </r>
       <r>   -3.1619    1.0000 </r>
       <r>   -3.0248    1.0000 </r>
       <r>   -2.9741    1.0000 </r>
       <r>   -2.9449    1.0000 </r>
       <r>   -2.8634    1.0000 </r>
       <r>   -2.7666    1.0000 </r>
       <r>   -2.7506    1.0000 </r>
       <r>   -2.5404    1.0000 </r>
       <r>   -2.4517    1.0000 </r>
       <r>   -2.3821    1.0000 </r>
       <r>   -2.3498    1.0000 </r>
       <r>   -2.2846    1.0000 </r>
       <r>   -2.2390    1.0000 </r>
       <r>   -2.1451    1.0000 </r>
       <r>   -2.0546    1.0000 </r>
       <r>   -1.9689    1.0000 </r>
       <r>   -1.9332    1.0000 </r>
       <r>   -1.8844    1.0000 </r>
       <r>   -1.8619    1.0000 </r>
       <r>   -1.7974    1.0000 </r>
       <r>   -1.6556    1.0000 </r>
       <r>   -1.4750    1.0000 </r>
       <r>   -1.3094    1.0012 </r>
       <r>   -1.2365    1.0052 </r>
       <r>   -1.2093    1.0082 </r>
       <r>   -1.1363    1.0218 </r>
       <r>   -0.9388    0.9372 </r>
       <r>   -0.8344    0.5992 </r>
       <r>   -0.7893    0.4098 </r>
       <r>   -0.7717    0.3383 </r>
       <r>   -0.6760    0.0497 </r>
       <r>   -0.5226   -0.0302 </r>
       <r>   -0.4977   -0.0247 </r>
       <r>   -0.2091   -0.0001 </r>
       <r>    0.6859   -0.0000 </r>
       <r>    1.0231   -0.0000 </r>
       <r>    1.0662   -0.0000 </r>
       <r>    1.8065   -0.0000 </r>
       <r>    1.9585   -0.0000 </r>
       <r>    2.0619   -0.0000 </r>
       <r>    2.4774   -0.0000 </r>
       <r>    3.0338   -0.0000 </r>
       <r>    3.5763   -0.0000 </r>
       <r>    4.0051   -0.0000 </r>
      </set>
      <set comment="kpoint 11">
       <r>   -8.8905    1.0000 </r>
       <r>   -7.9056    1.0000 </r>
       <r>   -7.7166    1.0000 </r>
       <r>   -7.1414    1.0000 </r>
       <r>   -6.7847    1.0000 </r>
       <r>   -6.7729    1.0000 </r>
       <r>   -6.6101    1.0000 </r>
       <r>   -6.5701    1.0000 </r>
       <r>   -6.5424    1.0000 </r>
       <r>   -6.5298    1.0000 </r>
       <r>   -6.4823    1.0000 </r>
       <r>   -6.2368    1.0000 </r>
       <r>   -6.1809    1.0000 </r>
       <r>   -6.0741    1.0000 </r>
       <r>   -6.0533    1.0000 </r>
       <r>   -5.9858    1.0000 </r>
       <r>   -5.8370    1.0000 </r>
       <r>   -5.6916    1.0000 </r>
       <r>   -5.5369    1.0000 </r>
       <r>   -5.4365    1.0000 </r>
       <r>   -5.3899    1.0000 </r>
       <r>   -5.3494    1.0000 </r>
       <r>   -5.2855    1.0000 </r>
       <r>   -5.2026    1.0000 </r>
       <r>   -5.0537    1.0000 </r>
       <r>   -5.0236    1.0000 </r>
       <r>   -4.9718    1.0000 </r>
       <r>   -4.7688    1.0000 </r>
       <r>   -4.7270    1.0000 </r>
       <r>   -4.6702    1.0000 </r>
       <r>   -4.6409    1.0000 </r>
       <r>   -4.5094    1.0000 </r>
       <r>   -4.4620    1.0000 </r>
       <r>   -4.4099    1.0000 </r>
       <r>   -4.3543    1.0000 </r>
       <r>   -4.2251    1.0000 </r>
       <r>   -4.1307    1.0000 </r>
       <r>   -4.0933    1.0000 </r>
       <r>   -3.9800    1.0000 </r>
       <r>   -3.9018    1.0000 </r>
       <r>   -3.8132    1.0000 </r>
       <r>   -3.7504    1.0000 </r>
       <r>   -3.7111    1.0000 </r>
       <r>   -3.6682    1.0000 </r>
       <r>   -3.6396    1.0000 </r>
       <r>   -3.6085    1.0000 </r>
       <r>   -3.5478    1.0000 </r>
       <r>   -3.4859    1.0000 </r>
       <r>   -3.3711    1.0000 </r>
       <r>   -3.3348    1.0000 </r>
       <r>   -3.2888    1.0000 </r>
       <r>   -3.2194    1.0000 </r>
       <r>   -3.1814    1.0000 </r>
       <r>   -3.0209    1.0000 </r>
       <r>   -3.0060    1.0000 </r>
       <r>   -2.9143    1.0000 </r>
       <r>   -2.8551    1.0000 </r>
       <r>   -2.7709    1.0000 </r>
       <r>   -2.7430    1.0000 </r>
       <r>   -2.5461    1.0000 </r>
       <r>   -2.4774    1.0000 </r>
       <r>   -2.3898    1.0000 </r>
       <r>   -2.3363    1.0000 </r>
       <r>   -2.2483    1.0000 </r>
       <r>   -2.2120    1.0000 </r>
       <r>   -2.1547    1.0000 </r>
       <r>   -2.0845    1.0000 </r>
       <r>   -2.0036    1.0000 </r>
       <r>   -1.9348    1.0000 </r>
       <r>   -1.8812    1.0000 </r>
       <r>   -1.8442    1.0000 </r>
       <r>   -1.7618    1.0000 </r>
       <r>   -1.6422    1.0000 </r>
       <r>   -1.4356    1.0000 </r>
       <r>   -1.3936    1.0001 </r>
       <r>   -1.3048    1.0013 </r>
       <r>   -1.2095    1.0082 </r>
       <r>   -1.0535    1.0354 </r>
       <r>   -0.9106    0.8697 </r>
       <r>   -0.8767    0.7631 </r>
       <r>   -0.8027    0.4662 </r>
       <r>   -0.7227    0.1645 </r>
       <r>   -0.6732    0.0444 </r>
       <r>   -0.5762   -0.0350 </r>
       <r>   -0.4743   -0.0193 </r>
       <r>   -0.2094   -0.0001 </r>
       <r>    0.6853   -0.0000 </r>
       <r>    1.0210   -0.0000 </r>
       <r>    1.0693   -0.0000 </r>
       <r>    1.7758   -0.0000 </r>
       <r>    1.9681   -0.0000 </r>
       <r>    2.1141   -0.0000 </r>
       <r>    2.4440   -0.0000 </r>
       <r>    3.0311   -0.0000 </r>
       <r>    3.5838   -0.0000 </r>
       <r>    4.0027   -0.0000 </r>
      </set>
      <set comment="kpoint 12">
       <r>   -8.5400    1.0000 </r>
       <r>   -8.1997    1.0000 </r>
       <r>   -7.4621    1.0000 </r>
       <r>   -7.2541    1.0000 </r>
       <r>   -6.6824    1.0000 </r>
       <r>   -6.6678    1.0000 </r>
       <r>   -6.5395    1.0000 </r>
       <r>   -6.4842    1.0000 </r>
       <r>   -6.4391    1.0000 </r>
       <r>   -6.3627    1.0000 </r>
       <r>   -6.3290    1.0000 </r>
       <r>   -6.2042    1.0000 </r>
       <r>   -6.1410    1.0000 </r>
       <r>   -6.0261    1.0000 </r>
       <r>   -5.8845    1.0000 </r>
       <r>   -5.7753    1.0000 </r>
       <r>   -5.6936    1.0000 </r>
       <r>   -5.6498    1.0000 </r>
       <r>   -5.5720    1.0000 </r>
       <r>   -5.4841    1.0000 </r>
       <r>   -5.3561    1.0000 </r>
       <r>   -5.2686    1.0000 </r>
       <r>   -5.2282    1.0000 </r>
       <r>   -5.2124    1.0000 </r>
       <r>   -5.1131    1.0000 </r>
       <r>   -5.0490    1.0000 </r>
       <r>   -5.0154    1.0000 </r>
       <r>   -4.9206    1.0000 </r>
       <r>   -4.7851    1.0000 </r>
       <r>   -4.6921    1.0000 </r>
       <r>   -4.6444    1.0000 </r>
       <r>   -4.5778    1.0000 </r>
       <r>   -4.5552    1.0000 </r>
       <r>   -4.4813    1.0000 </r>
       <r>   -4.4139    1.0000 </r>
       <r>   -4.2683    1.0000 </r>
       <r>   -4.1152    1.0000 </r>
       <r>   -4.0821    1.0000 </r>
       <r>   -4.0546    1.0000 </r>
       <r>   -3.9731    1.0000 </r>
       <r>   -3.8715    1.0000 </r>
       <r>   -3.8191    1.0000 </r>
       <r>   -3.7962    1.0000 </r>
       <r>   -3.6812    1.0000 </r>
       <r>   -3.6756    1.0000 </r>
       <r>   -3.6484    1.0000 </r>
       <r>   -3.6055    1.0000 </r>
       <r>   -3.5929    1.0000 </r>
       <r>   -3.5130    1.0000 </r>
       <r>   -3.4889    1.0000 </r>
       <r>   -3.3740    1.0000 </r>
       <r>   -3.3345    1.0000 </r>
       <r>   -3.1341    1.0000 </r>
       <r>   -3.0658    1.0000 </r>
       <r>   -2.9623    1.0000 </r>
       <r>   -2.8994    1.0000 </r>
       <r>   -2.8482    1.0000 </r>
       <r>   -2.7976    1.0000 </r>
       <r>   -2.7313    1.0000 </r>
       <r>   -2.6410    1.0000 </r>
       <r>   -2.5934    1.0000 </r>
       <r>   -2.4842    1.0000 </r>
       <r>   -2.3443    1.0000 </r>
       <r>   -2.3209    1.0000 </r>
       <r>   -2.2754    1.0000 </r>
       <r>   -2.2481    1.0000 </r>
       <r>   -2.1501    1.0000 </r>
       <r>   -2.0789    1.0000 </r>
       <r>   -2.0254    1.0000 </r>
       <r>   -1.9804    1.0000 </r>
       <r>   -1.9275    1.0000 </r>
       <r>   -1.8652    1.0000 </r>
       <r>   -1.7838    1.0000 </r>
       <r>   -1.5970    1.0000 </r>
       <r>   -1.4554    1.0000 </r>
       <r>   -1.3350    1.0007 </r>
       <r>   -1.2333    1.0055 </r>
       <r>   -1.0586    1.0354 </r>
       <r>   -0.9062    0.8573 </r>
       <r>   -0.8311    0.5855 </r>
       <r>   -0.7737    0.3460 </r>
       <r>   -0.7008    0.1039 </r>
       <r>   -0.5926   -0.0322 </r>
       <r>   -0.5736   -0.0352 </r>
       <r>   -0.4826   -0.0212 </r>
       <r>   -0.4033   -0.0071 </r>
       <r>    0.7124   -0.0000 </r>
       <r>    1.0947   -0.0000 </r>
       <r>    1.3333   -0.0000 </r>
       <r>    1.6621   -0.0000 </r>
       <r>    1.7868   -0.0000 </r>
       <r>    2.1491   -0.0000 </r>
       <r>    2.4737   -0.0000 </r>
       <r>    3.5814   -0.0000 </r>
       <r>    3.6342   -0.0000 </r>
       <r>    4.0154   -0.0000 </r>
      </set>
      <set comment="kpoint 13">
       <r>   -8.5396    1.0000 </r>
       <r>   -8.1998    1.0000 </r>
       <r>   -7.4617    1.0000 </r>
       <r>   -7.2552    1.0000 </r>
       <r>   -6.6807    1.0000 </r>
       <r>   -6.6648    1.0000 </r>
       <r>   -6.5358    1.0000 </r>
       <r>   -6.4715    1.0000 </r>
       <r>   -6.4524    1.0000 </r>
       <r>   -6.3660    1.0000 </r>
       <r>   -6.3379    1.0000 </r>
       <r>   -6.2001    1.0000 </r>
       <r>   -6.1391    1.0000 </r>
       <r>   -6.0287    1.0000 </r>
       <r>   -5.8829    1.0000 </r>
       <r>   -5.7749    1.0000 </r>
       <r>   -5.6904    1.0000 </r>
       <r>   -5.6526    1.0000 </r>
[...]
       <r>   -4.4701    1.0000 </r>
       <r>   -4.4359    1.0000 </r>
       <r>   -4.3209    1.0000 </r>
       <r>   -4.2227    1.0000 </r>
       <r>   -4.1451    1.0000 </r>
       <r>   -4.1213    1.0000 </r>
       <r>   -4.0840    1.0000 </r>
       <r>   -4.0383    1.0000 </r>
       <r>   -3.9326    1.0000 </r>
       <r>   -3.8339    1.0000 </r>
       <r>   -3.7225    1.0000 </r>
       <r>   -3.7010    1.0000 </r>
       <r>   -3.6736    1.0000 </r>
       <r>   -3.6371    1.0000 </r>
       <r>   -3.6040    1.0000 </r>
       <r>   -3.5721    1.0000 </r>
       <r>   -3.4488    1.0000 </r>
       <r>   -3.3733    1.0000 </r>
       <r>   -3.3052    1.0000 </r>
       <r>   -3.1661    1.0000 </r>
       <r>   -2.9895    1.0000 </r>
       <r>   -2.9343    1.0000 </r>
       <r>   -2.8770    1.0000 </r>
       <r>   -2.8612    1.0000 </r>
       <r>   -2.8177    1.0000 </r>
       <r>   -2.6850    1.0000 </r>
       <r>   -2.5998    1.0000 </r>
       <r>   -2.5304    1.0000 </r>
       <r>   -2.4888    1.0000 </r>
       <r>   -2.3940    1.0000 </r>
       <r>   -2.3465    1.0000 </r>
       <r>   -2.2224    1.0000 </r>
       <r>   -2.1815    1.0000 </r>
       <r>   -2.1230    1.0000 </r>
       <r>   -2.0320    1.0000 </r>
       <r>   -1.9649    1.0000 </r>
       <r>   -1.9049    1.0000 </r>
       <r>   -1.8679    1.0000 </r>
       <r>   -1.7932    1.0000 </r>
       <r>   -1.6996    1.0000 </r>
       <r>   -1.5627    1.0000 </r>
       <r>   -1.4489    1.0000 </r>
       <r>   -1.3526    1.0004 </r>
       <r>   -1.2860    1.0020 </r>
       <r>   -1.0845    1.0328 </r>
       <r>   -0.9707    0.9900 </r>
       <r>   -0.8977    0.8321 </r>
       <r>   -0.8630    0.7129 </r>
       <r>   -0.7640    0.3082 </r>
       <r>   -0.6848    0.0671 </r>
       <r>   -0.5876   -0.0333 </r>
       <r>   -0.4240   -0.0098 </r>
       <r>   -0.4041   -0.0072 </r>
       <r>    0.2033   -0.0000 </r>
       <r>    0.5030   -0.0000 </r>
       <r>    1.4511   -0.0000 </r>
       <r>    1.5186   -0.0000 </r>
       <r>    1.6119   -0.0000 </r>
       <r>    2.3547   -0.0000 </r>
       <r>    3.1502   -0.0000 </r>
       <r>    3.4370   -0.0000 </r>
       <r>    3.9365   -0.0000 </r>
       <r>    3.9958   -0.0000 </r>
      </set>
     </set>
    </set>
   </array>
  </eigenvalues>
  <separator name="orbital magnetization" >
   <v name="MAGDIPOLOUT">      0.00000000      0.00000000      0.00000000</v>
  </separator>
  <dos>
   <i name="efermi">     -0.81073847 </i>
   <total>
    <array>
     <dimension dim="1">gridpoints</dimension>
     <dimension dim="2">spin</dimension>
     <field>energy</field>
     <field>total</field>
     <field>integrated</field>
     <set>
      <set comment="spin 1">
       <r>   -12.1872     0.0000     0.0000 </r>
       <r>   -12.1249     0.0000     0.0000 </r>
       <r>   -12.0626     0.0000     0.0000 </r>
       <r>   -12.0003     0.0000     0.0000 </r>
       <r>   -11.9380     0.0000     0.0000 </r>
       <r>   -11.8758     0.0000     0.0000 </r>
       <r>   -11.8135    -0.0000    -0.0000 </r>
       <r>   -11.7512    -0.0000    -0.0000 </r>
       <r>   -11.6889    -0.0000    -0.0000 </r>
       <r>   -11.6267    -0.0000    -0.0000 </r>
       <r>   -11.5644    -0.0000    -0.0000 </r>
       <r>   -11.5021    -0.0000    -0.0000 </r>
       <r>   -11.4398    -0.0000    -0.0000 </r>
       <r>   -11.3775    -0.0000    -0.0000 </r>
       <r>   -11.3153    -0.0000    -0.0000 </r>
       <r>   -11.2530    -0.0000    -0.0000 </r>
       <r>   -11.1907    -0.0000    -0.0000 </r>
       <r>   -11.1284    -0.0000    -0.0000 </r>
       <r>   -11.0662    -0.0000    -0.0000 </r>
       <r>   -11.0039    -0.0000    -0.0000 </r>
       <r>   -10.9416    -0.0000    -0.0000 </r>
       <r>   -10.8793    -0.0000    -0.0000 </r>
       <r>   -10.8170    -0.0000    -0.0000 </r>
       <r>   -10.7548    -0.0002    -0.0000 </r>
       <r>   -10.6925    -0.0010    -0.0001 </r>
       <r>   -10.6302    -0.0035    -0.0003 </r>
       <r>   -10.5679    -0.0097    -0.0009 </r>
       <r>   -10.5056    -0.0204    -0.0022 </r>
       <r>   -10.4434    -0.0284    -0.0039 </r>
       <r>   -10.3811    -0.0123    -0.0047 </r>
       <r>   -10.3188     0.0580    -0.0011 </r>
       <r>   -10.2565     0.1983     0.0113 </r>
       <r>   -10.1943     0.3889     0.0355 </r>
       <r>   -10.1320     0.5865     0.0720 </r>
       <r>   -10.0697     0.7559     0.1191 </r>
       <r>   -10.0074     0.8778     0.1737 </r>
       <r>    -9.9451     0.9344     0.2319 </r>
       <r>    -9.8829     0.9134     0.2888 </r>
       <r>    -9.8206     0.8340     0.3408 </r>
       <r>    -9.7583     0.7576     0.3879 </r>
       <r>    -9.6960     0.7598     0.4353 </r>
       <r>    -9.6338     0.8693     0.4894 </r>
       <r>    -9.5715     1.0198     0.5529 </r>
       <r>    -9.5092     1.0950     0.6211 </r>
       <r>    -9.4469     1.0427     0.6860 </r>
       <r>    -9.3846     0.9186     0.7432 </r>
       <r>    -9.3224     0.8072     0.7935 </r>
       <r>    -9.2601     0.7434     0.8398 </r>
       <r>    -9.1978     0.7365     0.8857 </r>
       <r>    -9.1355     0.8239     0.9370 </r>
       <r>    -9.0733     1.0406     1.0018 </r>
       <r>    -9.0110     1.3396     1.0852 </r>
       <r>    -8.9487     1.6007     1.1849 </r>
       <r>    -8.8864     1.7460     1.2937 </r>
       <r>    -8.8241     1.8063     1.4061 </r>
       <r>    -8.7619     1.8441     1.5210 </r>
       <r>    -8.6996     1.8553     1.6365 </r>
       <r>    -8.6373     1.8013     1.7487 </r>
       <r>    -8.5750     1.7199     1.8558 </r>
       <r>    -8.5127     1.7417     1.9643 </r>
       <r>    -8.4505     1.9716     2.0871 </r>
       <r>    -8.3882     2.3563     2.2338 </r>
       <r>    -8.3259     2.6805     2.4008 </r>
       <r>    -8.2636     2.7405     2.5714 </r>
       <r>    -8.2014     2.5394     2.7296 </r>
       <r>    -8.1391     2.2701     2.8710 </r>
       <r>    -8.0768     2.1010     3.0018 </r>
       <r>    -8.0145     2.0613     3.1302 </r>
       <r>    -7.9522     2.1683     3.2652 </r>
       <r>    -7.8900     2.5594     3.4246 </r>
       <r>    -7.8277     3.3580     3.6338 </r>
       <r>    -7.7654     4.4149     3.9087 </r>
       <r>    -7.7031     5.3412     4.2413 </r>
       <r>    -7.6409     5.9091     4.6094 </r>
       <r>    -7.5786     6.3301     5.0036 </r>
       <r>    -7.5163     7.0128     5.4403 </r>
       <r>    -7.4540     8.1369     5.9471 </r>
       <r>    -7.3917     9.5982     6.5448 </r>
       <r>    -7.3295    11.2112     7.2431 </r>
       <r>    -7.2672    12.7348     8.0362 </r>
       <r>    -7.2049    13.7985     8.8955 </r>
       <r>    -7.1426    14.0609     9.7712 </r>
       <r>    -7.0804    13.5129    10.6127 </r>
       <r>    -7.0181    12.6093    11.3980 </r>
       <r>    -6.9558    12.1090    12.1521 </r>
       <r>    -6.8935    12.6900    12.9425 </r>
       <r>    -6.8312    14.5402    13.8480 </r>
       <r>    -6.7690    17.2317    14.9211 </r>
       <r>    -6.7067    20.0208    16.1680 </r>
       <r>    -6.6444    22.3198    17.5580 </r>
       <r>    -6.5821    23.8750    19.0449 </r>
       <r>    -6.5198    24.5746    20.5754 </r>
       <r>    -6.4576    24.3587    22.0924 </r>
       <r>    -6.3953    23.4706    23.5541 </r>
       <r>    -6.3330    22.5375    24.9577 </r>
       <r>    -6.2707    22.0671    26.3320 </r>
       <r>    -6.2085    21.8889    27.6952 </r>
       <r>    -6.1462    21.3000    29.0217 </r>
       <r>    -6.0839    19.8002    30.2548 </r>
       <r>    -6.0216    17.6172    31.3520 </r>
       <r>    -5.9593    15.5458    32.3202 </r>
       <r>    -5.8971    14.3638    33.2147 </r>
       <r>    -5.8348    14.4064    34.1119 </r>
       <r>    -5.7725    15.5342    35.0794 </r>
       <r>    -5.7102    17.2859    36.1559 </r>
       <r>    -5.6480    19.0402    37.3417 </r>
       <r>    -5.5857    20.2304    38.6016 </r>
       <r>    -5.5234    20.5751    39.8830 </r>
       <r>    -5.4611    20.1677    41.1390 </r>
       <r>    -5.3988    19.4120    42.3479 </r>
       <r>    -5.3366    18.8525    43.5220 </r>
       <r>    -5.2743    18.8735    44.6974 </r>
       <r>    -5.2120    19.4304    45.9075 </r>
       <r>    -5.1497    20.1347    47.1615 </r>
       <r>    -5.0875    20.6355    48.4466 </r>
       <r>    -5.0252    20.8629    49.7459 </r>
       <r>    -4.9629    20.9584    51.0512 </r>
       <r>    -4.9006    21.1116    52.3660 </r>
       <r>    -4.8383    21.4927    53.7045 </r>
       <r>    -4.7761    22.2649    55.0911 </r>
       <r>    -4.7138    23.5722    56.5591 </r>
       <r>    -4.6515    25.3883    58.1403 </r>
       <r>    -4.5892    27.2822    59.8394 </r>
       <r>    -4.5269    28.4438    61.6108 </r>
       <r>    -4.4647    28.2504    63.3702 </r>
       <r>    -4.4024    27.0105    65.0523 </r>
       <r>    -4.3401    25.9932    66.6711 </r>
       <r>    -4.2778    26.4255    68.3169 </r>
       <r>    -4.2156    28.3880    70.0848 </r>
       <r>    -4.1533    30.8059    72.0033 </r>
       <r>    -4.0910    32.4960    74.0271 </r>
       <r>    -4.0287    33.1018    76.0887 </r>
       <r>    -3.9664    33.0893    78.1494 </r>
       <r>    -3.9042    33.0982    80.2107 </r>
       <r>    -3.8419    33.4179    82.2919 </r>
       <r>    -3.7796    33.9309    84.4050 </r>
       <r>    -3.7173    34.2766    86.5397 </r>
       <r>    -3.6551    33.9563    88.6545 </r>
       <r>    -3.5928    32.4928    90.6781 </r>
       <r>    -3.5305    29.7818    92.5328 </r>
       <r>    -3.4682    26.3100    94.1714 </r>
       <r>    -3.4059    22.8809    95.5963 </r>
       <r>    -3.3437    20.1028    96.8483 </r>
       <r>    -3.2814    18.1966    97.9815 </r>
       <r>    -3.2191    17.2218    99.0541 </r>
       <r>    -3.1568    17.3355   100.1337 </r>
       <r>    -3.0946    18.7474   101.3013 </r>
       <r>    -3.0323    21.3861   102.6331 </r>
       <r>    -2.9700    24.6087   104.1657 </r>
       <r>    -2.9077    27.3297   105.8678 </r>
       <r>    -2.8454    28.5758   107.6474 </r>
       <r>    -2.7832    28.0286   109.3930 </r>
       <r>    -2.7209    26.1581   111.0221 </r>
       <r>    -2.6586    23.9268   112.5122 </r>
       <r>    -2.5963    22.2621   113.8986 </r>
       <r>    -2.5340    21.6039   115.2441 </r>
       <r>    -2.4718    21.8273   116.6034 </r>
       <r>    -2.4095    22.4966   118.0045 </r>
       <r>    -2.3472    23.1399   119.4456 </r>
       <r>    -2.2849    23.4613   120.9067 </r>
       <r>    -2.2227    23.5224   122.3717 </r>
       <r>    -2.1604    23.6940   123.8473 </r>
       <r>    -2.0981    24.3267   125.3623 </r>
       <r>    -2.0358    25.4818   126.9492 </r>
       <r>    -1.9735    26.8881   128.6238 </r>
       <r>    -1.9113    27.9890   130.3669 </r>
       <r>    -1.8490    28.1689   132.1212 </r>
       <r>    -1.7867    27.2489   133.8182 </r>
       <r>    -1.7244    25.7419   135.4214 </r>
       <r>    -1.6622    24.3805   136.9397 </r>
       <r>    -1.5999    23.4303   138.3989 </r>
       <r>    -1.5376    22.6892   139.8120 </r>
       <r>    -1.4753    22.0871   141.1875 </r>
       <r>    -1.4130    21.9716   142.5559 </r>
       <r>    -1.3508    22.6926   143.9691 </r>
       <r>    -1.2885    24.1150   145.4710 </r>
       <r>    -1.2262    25.7702   147.0759 </r>
       <r>    -1.1639    27.4082   148.7828 </r>
       <r>    -1.1017    29.1136   150.5959 </r>
       <r>    -1.0394    30.8674   152.5183 </r>
       <r>    -0.9771    32.3249   154.5314 </r>
       <r>    -0.9148    33.1174   156.5939 </r>
       <r>    -0.8525    33.0548   158.6525 </r>
       <r>    -0.7903    31.9430   160.6419 </r>
       <r>    -0.7280    29.6059   162.4857 </r>
       <r>    -0.6657    26.3049   164.1239 </r>
       <r>    -0.6034    22.8028   165.5440 </r>
       <r>    -0.5411    19.7249   166.7724 </r>
       <r>    -0.4789    17.0520   167.8344 </r>
       <r>    -0.4166    14.4366   168.7335 </r>
       <r>    -0.3543    11.8109   169.4690 </r>
       <r>    -0.2920     9.4698   170.0588 </r>
       <r>    -0.2298     7.7111   170.5390 </r>
       <r>    -0.1675     6.6347   170.9522 </r>
       <r>    -0.1052     6.2087   171.3389 </r>
       <r>    -0.0429     6.2590   171.7287 </r>
       <r>     0.0194     6.3761   172.1258 </r>
       <r>     0.0816     6.1174   172.5068 </r>
       <r>     0.1439     5.4501   172.8462 </r>
       <r>     0.2062     4.8243   173.1466 </r>
       <r>     0.2685     4.6582   173.4367 </r>
       <r>     0.3307     4.8440   173.7384 </r>
       <r>     0.3930     4.8861   174.0427 </r>
       <r>     0.4553     4.4829   174.3219 </r>
       <r>     0.5176     3.8697   174.5629 </r>
       <r>     0.5799     3.5850   174.7862 </r>
       <r>     0.6421     3.9735   175.0336 </r>
       <r>     0.7044     4.9293   175.3406 </r>
       <r>     0.7667     6.0291   175.7161 </r>
       <r>     0.8290     6.8157   176.1406 </r>
       <r>     0.8913     7.0071   176.5770 </r>
       <r>     0.9535     6.6026   176.9882 </r>
       <r>     1.0158     5.8537   177.3527 </r>
       <r>     1.0781     5.0730   177.6686 </r>
       <r>     1.1404     4.4413   177.9452 </r>
       <r>     1.2026     3.9975   178.1942 </r>
       <r>     1.2649     3.7513   178.4278 </r>
       <r>     1.3272     3.7395   178.6607 </r>
       <r>     1.3895     3.9742   178.9082 </r>
       <r>     1.4518     4.3743   179.1806 </r>
       <r>     1.5140     4.7925   179.4791 </r>
       <r>     1.5763     5.1498   179.7998 </r>
       <r>     1.6386     5.5038   180.1426 </r>
       <r>     1.7009     5.8952   180.5097 </r>
       <r>     1.7631     6.1363   180.8919 </r>
       <r>     1.8254     5.9116   181.2601 </r>
       <r>     1.8877     5.1788   181.5826 </r>
       <r>     1.9500     4.3744   181.8550 </r>
       <r>     2.0123     4.0917   182.1098 </r>
       <r>     2.0745     4.5421   182.3927 </r>
       <r>     2.1368     5.3553   182.7262 </r>
       <r>     2.1991     5.9158   183.0947 </r>
       <r>     2.2614     5.9089   183.4627 </r>
       <r>     2.3236     5.5409   183.8077 </r>
       <r>     2.3859     5.2181   184.1327 </r>
       <r>     2.4482     5.0512   184.4473 </r>
       <r>     2.5105     4.7558   184.7435 </r>
       <r>     2.5728     4.0708   184.9970 </r>
       <r>     2.6350     3.2010   185.1963 </r>
       <r>     2.6973     2.7591   185.3682 </r>
       <r>     2.7596     3.2524   185.5707 </r>
       <r>     2.8219     4.6011   185.8573 </r>
       <r>     2.8842     6.0970   186.2370 </r>
       <r>     2.9464     6.8599   186.6642 </r>
       <r>     3.0087     6.4683   187.0670 </r>
       <r>     3.0710     5.2405   187.3934 </r>
       <r>     3.1333     3.9244   187.6378 </r>
       <r>     3.1955     3.1329   187.8329 </r>
       <r>     3.2578     3.0279   188.0215 </r>
       <r>     3.3201     3.3814   188.2321 </r>
       <r>     3.3824     3.8246   188.4703 </r>
       <r>     3.4447     4.0922   188.7251 </r>
       <r>     3.5069     4.1140   188.9813 </r>
       <r>     3.5692     3.9151   189.2252 </r>
       <r>     3.6315     3.5303   189.4450 </r>
       <r>     3.6938     3.1172   189.6392 </r>
       <r>     3.7560     3.0184   189.8271 </r>
       <r>     3.8183     3.4681   190.0431 </r>
       <r>     3.8806     4.2343   190.3068 </r>
       <r>     3.9429     4.7212   190.6009 </r>
       <r>     4.0052     4.4764   190.8796 </r>
       <r>     4.0674     3.5670   191.1018 </r>
       <r>     4.1297     2.4904   191.2569 </r>
       <r>     4.1920     1.7589   191.3664 </r>
       <r>     4.2543     1.5575   191.4634 </r>
       <r>     4.3165     1.7244   191.5708 </r>
       <r>     4.3788     1.9466   191.6920 </r>
       <r>     4.4411     1.9486   191.8134 </r>
       <r>     4.5034     1.6147   191.9140 </r>
       <r>     4.5657     1.0440   191.9790 </r>
       <r>     4.6279     0.4721   192.0084 </r>
       <r>     4.6902     0.0907   192.0140 </r>
       <r>     4.7525    -0.0658   192.0099 </r>
       <r>     4.8148    -0.0805   192.0049 </r>
       <r>     4.8771    -0.0489   192.0019 </r>
       <r>     4.9393    -0.0209   192.0006 </r>
       <r>     5.0016    -0.0069   192.0001 </r>
       <r>     5.0639    -0.0018   192.0000 </r>
       <r>     5.1262    -0.0004   192.0000 </r>
       <r>     5.1884    -0.0001   192.0000 </r>
       <r>     5.2507    -0.0000   192.0000 </r>
       <r>     5.3130    -0.0000   192.0000 </r>
       <r>     5.3753    -0.0000   192.0000 </r>
       <r>     5.4376    -0.0000   192.0000 </r>
       <r>     5.4998    -0.0000   192.0000 </r>
       <r>     5.5621    -0.0000   192.0000 </r>
       <r>     5.6244    -0.0000   192.0000 </r>
       <r>     5.6867    -0.0000   192.0000 </r>
       <r>     5.7489    -0.0000   192.0000 </r>
       <r>     5.8112     0.0000   192.0000 </r>
       <r>     5.8735     0.0000   192.0000 </r>
       <r>     5.9358     0.0000   192.0000 </r>
       <r>     5.9981     0.0000   192.0000 </r>
       <r>     6.0603     0.0000   192.0000 </r>
       <r>     6.1226     0.0000   192.0000 </r>
       <r>     6.1849     0.0000   192.0000 </r>
       <r>     6.2472     0.0000   192.0000 </r>
       <r>     6.3094     0.0000   192.0000 </r>
       <r>     6.3717     0.0000   192.0000 </r>
       <r>     6.4340     0.0000   192.0000 </r>
       <r>     6.4963     0.0000   192.0000 </r>
      </set>
     </set>
    </array>
   </total>
  </dos>
 </calculation>
 <structure name="finalpos" >
  <crystal>
   <varray name="basis" >
    <v>       5.55785930       0.00000000       0.00000000 </v>
    <v>       2.77892965       4.81324734       0.00000000 </v>
    <v>       0.00000000       0.00000000      30.80695967 </v>
   </varray>
   <i name="volume">    824.12780743 </i>
   <varray name="rec_basis" >
    <v>       0.17992539      -0.10387997       0.00000000 </v>
    <v>       0.00000000       0.20775994       0.00000000 </v>
    <v>       0.00000000       0.00000000       0.03246020 </v>
   </varray>
  </crystal>
  <varray name="positions" >
   <v>       0.00000000       0.00000000       0.38952237 </v>
   <v>       0.50000000       0.00000000       0.38952237 </v>
   <v>       0.00000000       0.50000000       0.38952237 </v>
   <v>       0.50000000       0.50000000       0.38952237 </v>
   <v>       0.16666667       0.16666667       0.46468540 </v>
   <v>       0.66666667       0.16666667       0.46468540 </v>
   <v>       0.16666667       0.66666667       0.46468540 </v>
   <v>       0.66666667       0.66666667       0.46468540 </v>
   <v>       0.83333333       0.33333333       0.53920296 </v>
   <v>       0.33333333       0.33333333       0.53920296 </v>
   <v>       0.83333333       0.83333333       0.53920296 </v>
   <v>       0.33333333       0.83333333       0.53920296 </v>
   <v>       0.00000000       0.00000000       0.61486043 </v>
   <v>       0.50000000       0.00000000       0.61486043 </v>
   <v>       0.00000000       0.50000000       0.61486043 </v>
   <v>       0.50000000       0.50000000       0.61486043 </v>
  </varray>
  <varray name="selective"  type="logical" >
   <v type="logical" >  F  F  F </v>
   <v type="logical" >  F  F  F </v>
   <v type="logical" >  F  F  F </v>
   <v type="logical" >  F  F  F </v>
   <v type="logical" >  T  T  T </v>
   <v type="logical" >  T  T  T </v>
   <v type="logical" >  T  T  T </v>
   <v type="logical" >  T  T  T </v>
   <v type="logical" >  T  T  T </v>
   <v type="logical" >  T  T  T </v>
   <v type="logical" >  T  T  T </v>
   <v type="logical" >  T  T  T </v>
   <v type="logical" >  T  T  T </v>
   <v type="logical" >  T  T  T </v>
   <v type="logical" >  T  T  T </v>
   <v type="logical" >  T  T  T </v>
  </varray>
  <nose>
   <v>      -3.00000000       0.00000000       0.00010000       0.00010000 </v>
  </nose>
 </structure>
</modeling>
