   16   16    1    1
  0.5150799E+02  0.5557859E-09  0.5557859E-09  0.3080696E-08  0.5000000E-15
  1.000000000000000E-004
  CAR 
 unknown system                          
    160     52     96
 
  0.6250000E-01  0.6250000E-01  0.0000000E+00  0.1041667E-01
    1      -10.252419   1.000000
    2       -8.942106   1.000000
    3       -7.841821   1.000000
    4       -7.794174   1.000000
    5       -7.584435   1.000000
    6       -7.561666   1.000000
    7       -7.494528   1.000000
    8       -7.434725   1.000000
    9       -7.426783   1.000000
   10       -7.324741   1.000000
   11       -6.976286   1.000000
   12       -6.963803   1.000000
   13       -6.905763   1.000000
   14       -6.675139   1.000000
   15       -6.638483   1.000000
   16       -6.624954   1.000000
   17       -6.528214   1.000000
   18       -6.514154   1.000000
   19       -6.498871   1.000000
   20       -5.760541   1.000000
   21       -5.750004   1.000000
   22       -5.689211   1.000000
   23       -4.986443   1.000000
   24       -4.844646   1.000000
   25       -4.841179   1.000000
   26       -4.760018   1.000000
   27       -4.727426   1.000000
   28       -4.716183   1.000000
   29       -4.662334   1.000000
   30       -4.561678   1.000000
   31       -4.479168   1.000000
   32       -4.477424   1.000000
   33       -4.345446   1.000000
   34       -4.314152   1.000000
   35       -4.171690   1.000000
   36       -4.169473   1.000000
   37       -3.980354   1.000000
   38       -3.839572   1.000000
   39       -3.799509   1.000000
   40       -3.772619   1.000000
   41       -3.709520   1.000000
   42       -3.597536   1.000000
   43       -3.554449   1.000000
   44       -3.481711   1.000000
   45       -3.416334   1.000000
   46       -3.110489   1.000000
   47       -3.108063   1.000000
   48       -2.945482   1.000000
   49       -2.908083   1.000000
   50       -2.798247   1.000000
   51       -2.757634   1.000000
   52       -2.484163   1.000000
   53       -2.481749   1.000000
   54       -2.019539   1.000000
   55       -2.010361   1.000000
   56       -1.796487   1.000000
   57       -1.717159   1.000000
   58       -1.676672   1.000000
   59       -1.667874   1.000000
   60       -1.640002   1.000000
   61       -1.578565   1.000003
   62       -1.502381   1.000037
   63       -1.257766   1.009755
   64       -1.243320   1.012078
   65       -1.223732   1.015749
   66       -1.191316   1.022859
   67       -1.150121   1.031827
   68       -1.109880   1.035337
   69       -1.021571   0.977847
   70       -1.013768   0.965581
   71       -0.940943   0.778836
   72       -0.906342   0.649313
   73       -0.810576   0.258910
   74       -0.770048   0.128884
   75       -0.756029   0.092967
   76       -0.669643  -0.025526
   77       -0.665756  -0.027381
   78       -0.524775  -0.017335
   79       -0.403018  -0.002325
   80       -0.345219  -0.000648
   81       -0.308651  -0.000261
   82       -0.243626  -0.000043
   83       -0.110417  -0.000001
   84       -0.036718  -0.000000
   85        0.015295  -0.000000
   86        0.025406  -0.000000
   87        0.336926  -0.000000
   88        0.409816  -0.000000
   89        1.116260  -0.000000
   90        1.476956  -0.000000
   91        1.536281  -0.000000
   92        1.593881  -0.000000
   93        1.736863  -0.000000
   94        1.766642  -0.000000
   95        2.486080  -0.000000
   96        2.518937  -0.000000
 
  0.0000000E+00  0.6250000E-01  0.0000000E+00  0.2083333E-01
    1      -10.252419   1.000000
    2       -8.942104   1.000000
    3       -7.841814   1.000000
    4       -7.794144   1.000000
    5       -7.581128   1.000000
    6       -7.566131   1.000000
    7       -7.493419   1.000000
    8       -7.435064   1.000000
    9       -7.426504   1.000000
   10       -7.324569   1.000000
   11       -6.976149   1.000000
   12       -6.964078   1.000000
   13       -6.905694   1.000000
   14       -6.671072   1.000000
   15       -6.648178   1.000000
   16       -6.619521   1.000000
   17       -6.529670   1.000000
   18       -6.508061   1.000000
   19       -6.503315   1.000000
   20       -5.761803   1.000000
   21       -5.749069   1.000000
   22       -5.688903   1.000000
   23       -4.985926   1.000000
   24       -4.846241   1.000000
   25       -4.844050   1.000000
   26       -4.745539   1.000000
   27       -4.739568   1.000000
   28       -4.716408   1.000000
   29       -4.660521   1.000000
   30       -4.562110   1.000000
   31       -4.482891   1.000000
   32       -4.472766   1.000000
   33       -4.341870   1.000000
   34       -4.317564   1.000000
   35       -4.176617   1.000000
   36       -4.165024   1.000000
   37       -3.980259   1.000000
   38       -3.841464   1.000000
   39       -3.797636   1.000000
   40       -3.773535   1.000000
   41       -3.708404   1.000000
   42       -3.597076   1.000000
   43       -3.550526   1.000000
   44       -3.488954   1.000000
   45       -3.413296   1.000000
   46       -3.146796   1.000000
   47       -3.055821   1.000000
   48       -2.958229   1.000000
   49       -2.901114   1.000000
   50       -2.835623   1.000000
   51       -2.731260   1.000000
   52       -2.486108   1.000000
   53       -2.480178   1.000000
   54       -2.030105   1.000000
   55       -1.996217   1.000000
   56       -1.802189   1.000000
   57       -1.710918   1.000000
   58       -1.690829   1.000000
   59       -1.662170   1.000000
   60       -1.638026   1.000000
   61       -1.568692   1.000005
   62       -1.511976   1.000028
   63       -1.279831   1.006847
   64       -1.253719   1.010372
   65       -1.197435   1.021452
   66       -1.176091   1.026371
   67       -1.129546   1.034756
   68       -1.100980   1.034580
   69       -1.044735   1.006161
   70       -0.991599   0.922643
   71       -0.964236   0.852645
   72       -0.940129   0.776038
   73       -0.800813   0.224311
   74       -0.769752   0.128075
   75       -0.729795   0.039041
   76       -0.705629   0.004075
   77       -0.642000  -0.034283
   78       -0.525788  -0.017550
   79       -0.409474  -0.002649
   80       -0.340797  -0.000583
   81       -0.310728  -0.000276
   82       -0.243367  -0.000043
   83       -0.109200  -0.000001
   84       -0.038067  -0.000000
   85        0.013136  -0.000000
   86        0.030374  -0.000000
   87        0.335868  -0.000000
   88        0.413126  -0.000000
   89        1.116938  -0.000000
   90        1.471233  -0.000000
   91        1.521166  -0.000000
   92        1.614923  -0.000000
   93        1.729466  -0.000000
   94        1.770819  -0.000000
   95        2.481464  -0.000000
   96        2.525439  -0.000000
 
  0.1875000E+00  0.6250000E-01  0.0000000E+00  0.2083333E-01
    1      -10.048883   1.000000
    2       -8.740604   1.000000
    3       -7.635171   1.000000
    4       -7.605378   1.000000
    5       -7.548500   1.000000
    6       -7.467676   1.000000
    7       -7.358086   1.000000
    8       -7.331259   1.000000
    9       -7.289309   1.000000
   10       -7.181360   1.000000
   11       -6.875548   1.000000
   12       -6.861235   1.000000
   13       -6.814864   1.000000
   14       -6.620352   1.000000
   15       -6.552400   1.000000
   16       -6.438199   1.000000
   17       -6.431499   1.000000
   18       -6.376897   1.000000
   19       -6.302257   1.000000
   20       -5.703149   1.000000
   21       -5.686865   1.000000
   22       -5.632040   1.000000
   23       -4.996210   1.000000
   24       -4.919062   1.000000
   25       -4.848685   1.000000
   26       -4.838845   1.000000
   27       -4.752278   1.000000
   28       -4.683538   1.000000
   29       -4.666053   1.000000
   30       -4.592634   1.000000
   31       -4.535476   1.000000
   32       -4.356006   1.000000
   33       -4.240101   1.000000
   34       -4.227110   1.000000
   35       -4.146125   1.000000
   36       -4.112656   1.000000
   37       -3.979108   1.000000
   38       -3.953260   1.000000
   39       -3.932651   1.000000
   40       -3.738025   1.000000
   41       -3.691476   1.000000
   42       -3.671004   1.000000
   43       -3.651802   1.000000
   44       -3.588785   1.000000
   45       -3.561077   1.000000
   46       -3.452559   1.000000
   47       -3.271425   1.000000
   48       -3.147083   1.000000
   49       -2.896362   1.000000
   50       -2.831171   1.000000
   51       -2.691405   1.000000
   52       -2.575987   1.000000
   53       -2.526824   1.000000
   54       -2.156228   1.000000
   55       -2.039371   1.000000
   56       -1.980725   1.000000
   57       -1.933552   1.000000
   58       -1.903234   1.000000
   59       -1.860160   1.000000
   60       -1.825068   1.000000
   61       -1.782036   1.000000
   62       -1.730484   1.000000
   63       -1.656839   1.000000
   64       -1.613093   1.000001
   65       -1.564372   1.000005
   66       -1.495541   1.000045
   67       -1.322100   1.003181
   68       -1.294594   1.005306
   69       -1.206766   1.019350
   70       -1.129659   1.034745
   71       -1.112965   1.035435
   72       -1.088782   1.032219
   73       -0.992886   0.925471
   74       -0.982823   0.902239
   75       -0.907962   0.655793
   76       -0.869281   0.495179
   77       -0.839820   0.372187
   78       -0.798868   0.217649
   79       -0.745094   0.068394
   80       -0.657861  -0.030476
   81       -0.617102  -0.035203
   82       -0.446848  -0.005363
   83       -0.394488  -0.001949
   84       -0.283032  -0.000132
   85       -0.225469  -0.000025
   86        0.134268  -0.000000
   87        0.236796  -0.000000
   88        0.779616  -0.000000
   89        0.817239  -0.000000
   90        1.082199  -0.000000
   91        1.249607  -0.000000
   92        1.614788  -0.000000
   93        2.080476  -0.000000
   94        2.519778  -0.000000
   95        2.938484  -0.000000
   96        3.313437  -0.000000
 
  0.1250000E+00  0.1875000E+00  0.0000000E+00  0.2083333E-01
    1      -10.048885   1.000000
    2       -8.740610   1.000000
    3       -7.635224   1.000000
    4       -7.605521   1.000000
    5       -7.548954   1.000000
    6       -7.466419   1.000000
    7       -7.358461   1.000000
    8       -7.330635   1.000000
    9       -7.290126   1.000000
   10       -7.181721   1.000000
   11       -6.875957   1.000000
   12       -6.860248   1.000000
   13       -6.815256   1.000000
   14       -6.621947   1.000000
   15       -6.549341   1.000000
   16       -6.445520   1.000000
   17       -6.424086   1.000000
   18       -6.378537   1.000000
   19       -6.302095   1.000000
   20       -5.697711   1.000000
   21       -5.691259   1.000000
   22       -5.633021   1.000000
   23       -4.998587   1.000000
   24       -4.914887   1.000000
   25       -4.849260   1.000000
   26       -4.836143   1.000000
   27       -4.753902   1.000000
   28       -4.682457   1.000000
   29       -4.667556   1.000000
   30       -4.592543   1.000000
   31       -4.540167   1.000000
   32       -4.354874   1.000000
   33       -4.240578   1.000000
   34       -4.226077   1.000000
   35       -4.146440   1.000000
   36       -4.111664   1.000000
   37       -3.977881   1.000000
   38       -3.952134   1.000000
   39       -3.935033   1.000000
   40       -3.738335   1.000000
   41       -3.691688   1.000000
   42       -3.673512   1.000000
   43       -3.644476   1.000000
   44       -3.595153   1.000000
   45       -3.561519   1.000000
   46       -3.446672   1.000000
   47       -3.285870   1.000000
   48       -3.134998   1.000000
   49       -2.906684   1.000000
   50       -2.806744   1.000000
   51       -2.703208   1.000000
   52       -2.576211   1.000000
   53       -2.528468   1.000000
   54       -2.154820   1.000000
   55       -2.039749   1.000000
   56       -1.980769   1.000000
   57       -1.927291   1.000000
   58       -1.910569   1.000000
   59       -1.874726   1.000000
   60       -1.822016   1.000000
   61       -1.763004   1.000000
   62       -1.752049   1.000000
   63       -1.639610   1.000000
   64       -1.610865   1.000001
   65       -1.559085   1.000006
   66       -1.504500   1.000035
   67       -1.310678   1.003957
   68       -1.298283   1.004968
   69       -1.227672   1.014965
   70       -1.152501   1.031385
   71       -1.097684   1.034103
   72       -1.073055   1.026441
   73       -1.015595   0.968582
   74       -0.955943   0.827794
   75       -0.913655   0.678287
   76       -0.863506   0.470765
   77       -0.823269   0.306502
   78       -0.811690   0.262974
   79       -0.747118   0.072715
   80       -0.683429  -0.016993
   81       -0.563817  -0.026159
   82       -0.465430  -0.007369
   83       -0.409167  -0.002633
   84       -0.284399  -0.000137
   85       -0.225886  -0.000025
   86        0.132985  -0.000000
   87        0.241544  -0.000000
   88        0.776264  -0.000000
   89        0.819294  -0.000000
   90        1.081742  -0.000000
   91        1.254173  -0.000000
   92        1.613242  -0.000000
   93        2.078935  -0.000000
   94        2.520073  -0.000000
   95        2.938711  -0.000000
   96        3.312626  -0.000000
 
 -0.6250000E-01  0.1250000E+00  0.0000000E+00  0.2083333E-01
    1      -10.048880   1.000000
    2       -8.740596   1.000000
    3       -7.635151   1.000000
    4       -7.605199   1.000000
    5       -7.547216   1.000000
    6       -7.470283   1.000000
    7       -7.358192   1.000000
    8       -7.329930   1.000000
    9       -7.289711   1.000000
   10       -7.180648   1.000000
   11       -6.872189   1.000000
   12       -6.865439   1.000000
   13       -6.814192   1.000000
   14       -6.620049   1.000000
   15       -6.553060   1.000000
   16       -6.444220   1.000000
   17       -6.424916   1.000000
   18       -6.376795   1.000000
   19       -6.302658   1.000000
   20       -5.705325   1.000000
   21       -5.686424   1.000000
   22       -5.630414   1.000000
   23       -4.995382   1.000000
   24       -4.921856   1.000000
   25       -4.851118   1.000000
   26       -4.841496   1.000000
   27       -4.749222   1.000000
   28       -4.690581   1.000000
   29       -4.659653   1.000000
   30       -4.588392   1.000000
   31       -4.529964   1.000000
   32       -4.354831   1.000000
   33       -4.246489   1.000000
   34       -4.222613   1.000000
   35       -4.153833   1.000000
   36       -4.109919   1.000000
   37       -3.973867   1.000000
   38       -3.955275   1.000000
   39       -3.935095   1.000000
   40       -3.733605   1.000000
   41       -3.703690   1.000000
   42       -3.676414   1.000000
   43       -3.638171   1.000000
   44       -3.587072   1.000000
   45       -3.559027   1.000000
   46       -3.457193   1.000000
   47       -3.270725   1.000000
   48       -3.138361   1.000000
   49       -2.917828   1.000000
   50       -2.824293   1.000000
   51       -2.691481   1.000000
   52       -2.573023   1.000000
   53       -2.525748   1.000000
   54       -2.165756   1.000000
   55       -2.006761   1.000000
   56       -1.975371   1.000000
   57       -1.943779   1.000000
   58       -1.917357   1.000000
   59       -1.894077   1.000000
   60       -1.801239   1.000000
   61       -1.768845   1.000000
   62       -1.721496   1.000000
   63       -1.667260   1.000000
   64       -1.623116   1.000001
   65       -1.567687   1.000005
   66       -1.486734   1.000059
   67       -1.324535   1.003033
   68       -1.290652   1.005688
   69       -1.196692   1.021622
   70       -1.133530   1.034338
   71       -1.120395   1.035364
   72       -1.095271   1.033681
   73       -1.006967   0.953700
   74       -0.969268   0.866918
   75       -0.928857   0.735952
   76       -0.853020   0.426683
   77       -0.843237   0.386150
   78       -0.789506   0.186714
   79       -0.744742   0.067652
   80       -0.664283  -0.028025
   81       -0.585275  -0.030794
   82       -0.443912  -0.005090
   83       -0.406666  -0.002504
   84       -0.289787  -0.000159
   85       -0.228422  -0.000028
   86        0.131754  -0.000000
   87        0.237467  -0.000000
   88        0.777458  -0.000000
   89        0.818473  -0.000000
   90        1.084319  -0.000000
   91        1.248415  -0.000000
   92        1.614194  -0.000000
   93        2.080557  -0.000000
   94        2.520673  -0.000000
   95        2.938892  -0.000000
   96        3.312335  -0.000000
 
  0.3125000E+00  0.6250000E-01  0.0000000E+00  0.2083333E-01
    1       -9.596311   1.000000
    2       -8.305174   1.000000
    3       -7.630036   1.000000
    4       -7.253103   1.000000
    5       -7.206915   1.000000
    6       -7.191605   1.000000
    7       -7.177134   1.000000
    8       -7.012034   1.000000
    9       -7.002798   1.000000
   10       -6.884592   1.000000
   11       -6.689831   1.000000
   12       -6.632654   1.000000
   13       -6.582594   1.000000
   14       -6.534170   1.000000
   15       -6.293243   1.000000
   16       -6.269167   1.000000
   17       -6.105513   1.000000
   18       -6.023042   1.000000
   19       -5.908552   1.000000
   20       -5.577488   1.000000
   21       -5.546915   1.000000
   22       -5.509209   1.000000
   23       -5.154896   1.000000
   24       -5.104209   1.000000
   25       -5.022767   1.000000
   26       -4.963484   1.000000
   27       -4.878763   1.000000
   28       -4.735126   1.000000
   29       -4.594069   1.000000
   30       -4.527864   1.000000
   31       -4.397135   1.000000
   32       -4.303039   1.000000
   33       -4.245379   1.000000
   34       -4.205727   1.000000
   35       -4.164358   1.000000
   36       -4.117390   1.000000
   37       -4.079784   1.000000
   38       -4.030742   1.000000
   39       -3.989840   1.000000
   40       -3.971912   1.000000
   41       -3.883352   1.000000
   42       -3.871516   1.000000
   43       -3.804071   1.000000
   44       -3.761924   1.000000
   45       -3.603102   1.000000
   46       -3.429599   1.000000
   47       -3.395854   1.000000
   48       -3.246047   1.000000
   49       -2.990606   1.000000
   50       -2.922496   1.000000
   51       -2.859639   1.000000
   52       -2.771756   1.000000
   53       -2.741261   1.000000
   54       -2.660398   1.000000
   55       -2.615731   1.000000
   56       -2.592816   1.000000
   57       -2.519436   1.000000
   58       -2.472693   1.000000
   59       -2.414307   1.000000
   60       -2.324341   1.000000
   61       -2.203311   1.000000
   62       -2.085312   1.000000
   63       -2.005228   1.000000
   64       -1.962959   1.000000
   65       -1.910193   1.000000
   66       -1.844346   1.000000
   67       -1.734248   1.000000
   68       -1.669821   1.000000
   69       -1.623434   1.000001
   70       -1.550618   1.000008
   71       -1.485360   1.000061
   72       -1.388940   1.000758
   73       -1.344586   1.002022
   74       -1.291418   1.005612
   75       -1.195576   1.021878
   76       -1.150950   1.031675
   77       -1.110669   1.035370
   78       -1.012209   0.962958
   79       -0.949632   0.807804
   80       -0.878755   0.535237
   81       -0.791584   0.193413
   82       -0.764348   0.113686
   83       -0.739870   0.057717
   84       -0.613574  -0.034955
   85       -0.487213  -0.010386
   86        0.267116  -0.000000
   87        0.379479  -0.000000
   88        0.483797  -0.000000
   89        0.954976  -0.000000
   90        1.635327  -0.000000
   91        1.880710  -0.000000
   92        1.909450  -0.000000
   93        2.297518  -0.000000
   94        2.623969  -0.000000
   95        3.231744  -0.000000
   96        3.868647  -0.000000
 
  0.2500000E+00  0.3125000E+00  0.0000000E+00  0.2083333E-01
    1       -9.596338   1.000000
    2       -8.305203   1.000000
    3       -7.629655   1.000000
    4       -7.257573   1.000000
    5       -7.204465   1.000000
    6       -7.188751   1.000000
    7       -7.177481   1.000000
    8       -7.015159   1.000000
    9       -7.000250   1.000000
   10       -6.886225   1.000000
   11       -6.693059   1.000000
   12       -6.626784   1.000000
   13       -6.584874   1.000000
   14       -6.534081   1.000000
   15       -6.290944   1.000000
   16       -6.269931   1.000000
   17       -6.105905   1.000000
   18       -6.021139   1.000000
   19       -5.909871   1.000000
   20       -5.563706   1.000000
   21       -5.553783   1.000000
   22       -5.516783   1.000000
   23       -5.156502   1.000000
   24       -5.111184   1.000000
   25       -5.016041   1.000000
   26       -4.951424   1.000000
   27       -4.881872   1.000000
   28       -4.741865   1.000000
   29       -4.601453   1.000000
   30       -4.530289   1.000000
   31       -4.400369   1.000000
   32       -4.276819   1.000000
   33       -4.257249   1.000000
   34       -4.192335   1.000000
   35       -4.157866   1.000000
   36       -4.125304   1.000000
   37       -4.095100   1.000000
   38       -4.033679   1.000000
   39       -4.005040   1.000000
   40       -3.956803   1.000000
   41       -3.888630   1.000000
   42       -3.863620   1.000000
   43       -3.812659   1.000000
   44       -3.744019   1.000000
   45       -3.630359   1.000000
   46       -3.418071   1.000000
   47       -3.394269   1.000000
   48       -3.240646   1.000000
   49       -2.970728   1.000000
   50       -2.936891   1.000000
   51       -2.827411   1.000000
   52       -2.786234   1.000000
   53       -2.752349   1.000000
   54       -2.661716   1.000000
   55       -2.618371   1.000000
   56       -2.602023   1.000000
   57       -2.509361   1.000000
   58       -2.468174   1.000000
   59       -2.432215   1.000000
   60       -2.319131   1.000000
   61       -2.197471   1.000000
   62       -2.068261   1.000000
   63       -2.043360   1.000000
   64       -1.969567   1.000000
   65       -1.884838   1.000000
   66       -1.855702   1.000000
   67       -1.716923   1.000000
   68       -1.667048   1.000000
   69       -1.590083   1.000002
   70       -1.569835   1.000004
   71       -1.482739   1.000066
   72       -1.420401   1.000353
   73       -1.365774   1.001284
   74       -1.270573   1.007975
   75       -1.218724   1.016776
   76       -1.148685   1.032085
   77       -1.070350   1.025091
   78       -0.997411   0.935083
   79       -0.951102   0.812542
   80       -0.912698   0.674535
   81       -0.832352   0.342111
   82       -0.769269   0.126758
   83       -0.660910  -0.029384
   84       -0.605802  -0.034159
   85       -0.532409  -0.018983
   86        0.267859  -0.000000
   87        0.386497  -0.000000
   88        0.489548  -0.000000
   89        0.951247  -0.000000
   90        1.633588  -0.000000
   91        1.876574  -0.000000
   92        1.919289  -0.000000
   93        2.292798  -0.000000
   94        2.622511  -0.000000
   95        3.230315  -0.000000
   96        3.869131  -0.000000
 
 -0.6250000E-01  0.2500000E+00  0.0000000E+00  0.2083333E-01
    1       -9.596303   1.000000
    2       -8.305163   1.000000
    3       -7.629978   1.000000
    4       -7.253009   1.000000
    5       -7.206695   1.000000
    6       -7.192532   1.000000
    7       -7.176899   1.000000
    8       -7.011055   1.000000
    9       -7.003161   1.000000
   10       -6.884376   1.000000
   11       -6.690613   1.000000
   12       -6.630260   1.000000
   13       -6.584537   1.000000
   14       -6.534438   1.000000
   15       -6.292175   1.000000
   16       -6.270469   1.000000
   17       -6.105227   1.000000
   18       -6.022901   1.000000
   19       -5.908133   1.000000
   20       -5.576825   1.000000
   21       -5.550117   1.000000
   22       -5.507360   1.000000
   23       -5.158015   1.000000
   24       -5.104719   1.000000
   25       -5.020549   1.000000
   26       -4.963212   1.000000
   27       -4.882837   1.000000
   28       -4.732933   1.000000
   29       -4.590768   1.000000
   30       -4.526024   1.000000
   31       -4.392213   1.000000
   32       -4.295841   1.000000
   33       -4.258161   1.000000
   34       -4.205571   1.000000
   35       -4.155790   1.000000
   36       -4.115872   1.000000
   37       -4.088200   1.000000
   38       -4.025185   1.000000
   39       -3.993892   1.000000
   40       -3.979183   1.000000
   41       -3.884873   1.000000
   42       -3.855254   1.000000
   43       -3.814841   1.000000
   44       -3.767091   1.000000
   45       -3.603891   1.000000
   46       -3.426828   1.000000
   47       -3.392074   1.000000
   48       -3.240891   1.000000
   49       -2.992252   1.000000
   50       -2.930959   1.000000
   51       -2.858911   1.000000
   52       -2.786257   1.000000
   53       -2.722138   1.000000
   54       -2.652442   1.000000
   55       -2.617441   1.000000
   56       -2.599694   1.000000
   57       -2.516590   1.000000
   58       -2.482265   1.000000
   59       -2.411006   1.000000
   60       -2.336267   1.000000
   61       -2.210602   1.000000
   62       -2.079344   1.000000
   63       -1.988426   1.000000
   64       -1.966550   1.000000
   65       -1.901361   1.000000
   66       -1.859833   1.000000
   67       -1.730148   1.000000
   68       -1.664521   1.000000
   69       -1.611188   1.000001
   70       -1.572484   1.000004
   71       -1.479736   1.000072
   72       -1.369415   1.001184
   73       -1.357655   1.001533
   74       -1.286194   1.006145
   75       -1.203259   1.020133
   76       -1.145384   1.032652
   77       -1.110733   1.035372
   78       -1.006894   0.953568
   79       -0.947874   0.802076
   80       -0.885412   0.563242
   81       -0.796073   0.208215
   82       -0.772316   0.135153
   83       -0.732087   0.043070
   84       -0.617498  -0.035226
   85       -0.484671  -0.009995
   86        0.268177  -0.000000
   87        0.378100  -0.000000
   88        0.482316  -0.000000
   89        0.954834  -0.000000
   90        1.635361  -0.000000
   91        1.873559  -0.000000
   92        1.917043  -0.000000
   93        2.297873  -0.000000
   94        2.623379  -0.000000
   95        3.232131  -0.000000
   96        3.869679  -0.000000
 
  0.4375000E+00  0.6250000E-01  0.0000000E+00  0.2083333E-01
    1       -8.959437   1.000000
    2       -7.983872   1.000000
    3       -7.742205   1.000000
    4       -7.202631   1.000000
    5       -6.904239   1.000000
    6       -6.814232   1.000000
    7       -6.714140   1.000000
    8       -6.659036   1.000000
    9       -6.616783   1.000000
   10       -6.597813   1.000000
   11       -6.543229   1.000000
   12       -6.324834   1.000000
   13       -6.286672   1.000000
   14       -6.163655   1.000000
   15       -6.088563   1.000000
   16       -6.066237   1.000000
   17       -5.881948   1.000000
   18       -5.627768   1.000000
   19       -5.568555   1.000000
   20       -5.486605   1.000000
   21       -5.385504   1.000000
   22       -5.341872   1.000000
   23       -5.311070   1.000000
   24       -5.216746   1.000000
   25       -5.164064   1.000000
   26       -5.082630   1.000000
   27       -5.015033   1.000000
   28       -4.799864   1.000000
   29       -4.701438   1.000000
   30       -4.691387   1.000000
   31       -4.665701   1.000000
   32       -4.538388   1.000000
   33       -4.443692   1.000000
   34       -4.401584   1.000000
   35       -4.333918   1.000000
   36       -4.186042   1.000000
   37       -4.119633   1.000000
   38       -4.071871   1.000000
   39       -3.948465   1.000000
   40       -3.893968   1.000000
   41       -3.833416   1.000000
   42       -3.773680   1.000000
   43       -3.724094   1.000000
   44       -3.696609   1.000000
   45       -3.652765   1.000000
   46       -3.631704   1.000000
   47       -3.512815   1.000000
   48       -3.445441   1.000000
   49       -3.405447   1.000000
   50       -3.367273   1.000000
   51       -3.317114   1.000000
   52       -3.224398   1.000000
   53       -3.200836   1.000000
   54       -3.082220   1.000000
   55       -3.016872   1.000000
   56       -2.915091   1.000000
   57       -2.884534   1.000000
   58       -2.795382   1.000000
   59       -2.715882   1.000000
   60       -2.525896   1.000000
   61       -2.448260   1.000000
   62       -2.412465   1.000000
   63       -2.360718   1.000000
   64       -2.303590   1.000000
   65       -2.230542   1.000000
   66       -2.173661   1.000000
   67       -2.109181   1.000000
   68       -2.001948   1.000000
   69       -1.976748   1.000000
   70       -1.914981   1.000000
   71       -1.867458   1.000000
   72       -1.782767   1.000000
   73       -1.570662   1.000004
   74       -1.449536   1.000165
   75       -1.375159   1.001041
   76       -1.267590   1.008366
   77       -1.241253   1.012438
   78       -1.160204   1.029857
   79       -1.026030   0.984216
   80       -0.969740   0.868226
   81       -0.877902   0.531636
   82       -0.753531   0.087089
   83       -0.750670   0.080547
   84       -0.680333  -0.019189
   85       -0.503303  -0.013101
   86       -0.255100  -0.000060
   87        0.613093  -0.000000
   88        1.009159  -0.000000
   89        1.110859  -0.000000
   90        1.718196  -0.000000
   91        1.932404  -0.000000
   92        2.082419  -0.000000
   93        2.481679  -0.000000
   94        3.004160  -0.000000
   95        3.580088  -0.000000
   96        3.956489  -0.000000
 
  0.3750000E+00  0.4375000E+00  0.0000000E+00  0.2083333E-01
    1       -8.959674   1.000000
    2       -7.982682   1.000000
    3       -7.742988   1.000000
    4       -7.203231   1.000000
    5       -6.906207   1.000000
    6       -6.813742   1.000000
    7       -6.718879   1.000000
    8       -6.660299   1.000000
    9       -6.611504   1.000000
   10       -6.593753   1.000000
   11       -6.546909   1.000000
   12       -6.324176   1.000000
   13       -6.281566   1.000000
   14       -6.168464   1.000000
   15       -6.086878   1.000000
   16       -6.064801   1.000000
   17       -5.881058   1.000000
   18       -5.608326   1.000000
   19       -5.576765   1.000000
   20       -5.493545   1.000000