       N       E                     dE             d eps       ncg     rms          rms(c)
DAV:   1     0.979808134203E+03    0.97981E+03   -0.55754E+04  9984   0.102E+03
DAV:   2    -0.430986159453E+02   -0.10229E+04   -0.99349E+03 14640   0.249E+02
DAV:   3    -0.101308197726E+03   -0.58210E+02   -0.56565E+02 12480   0.599E+01
DAV:   4    -0.102555149522E+03   -0.12470E+01   -0.12419E+01 14280   0.100E+01
DAV:   5    -0.102585312153E+03   -0.30163E-01   -0.30154E-01 15000   0.125E+00    0.418E+01
DAV:   6    -0.983840511749E+02    0.42013E+01   -0.32714E+01 12000   0.203E+01    0.303E+01
DAV:   7    -0.133255484095E+03   -0.34871E+02   -0.38803E+02 14520   0.707E+01    0.504E+01
DAV:   8    -0.116498008254E+03    0.16757E+02   -0.15352E+02 14472   0.446E+01    0.391E+01
DAV:   9    -0.107357472379E+03    0.91405E+01   -0.14998E+02 14400   0.442E+01    0.256E+01
DAV:  10    -0.102931548938E+03    0.44259E+01   -0.13004E+02 13056   0.395E+01    0.252E+01
DAV:  11    -0.969151268381E+02    0.60164E+01   -0.14454E+01 14592   0.182E+01    0.959E+00
DAV:  12    -0.961480885539E+02    0.76704E+00   -0.48132E+00 15336   0.128E+01    0.587E+00
DAV:  13    -0.959256406771E+02    0.22245E+00   -0.14220E+00 12744   0.532E+00    0.312E+00
DAV:  14    -0.960422180865E+02   -0.11658E+00   -0.16052E+00 13488   0.366E+00    0.499E+00
DAV:  15    -0.959102482831E+02    0.13197E+00   -0.10507E+00 12792   0.294E+00    0.227E+00
DAV:  16    -0.959122135182E+02   -0.19652E-02   -0.23281E-01 12696   0.177E+00    0.174E+00
DAV:  17    -0.959019520070E+02    0.10262E-01   -0.46828E-02 12120   0.805E-01    0.130E+00
DAV:  18    -0.958909372303E+02    0.11015E-01   -0.35063E-02 13032   0.648E-01    0.630E-01
DAV:  19    -0.958898240229E+02    0.11132E-02   -0.76478E-03 12024   0.330E-01    0.540E-01
DAV:  20    -0.958888992791E+02    0.92474E-03   -0.42708E-03 13248   0.232E-01    0.464E-01
DAV:  21    -0.958882369282E+02    0.66235E-03   -0.11726E-03 12336   0.133E-01    0.360E-01
DAV:  22    -0.958876392426E+02    0.59769E-03   -0.16848E-03 12288   0.138E-01    0.188E-01
DAV:  23    -0.958874927811E+02    0.14646E-03   -0.25478E-03 12672   0.150E-01    0.959E-02
DAV:  24    -0.958874999127E+02   -0.71316E-05   -0.11063E-04 10920   0.406E-02    0.696E-02
DAV:  25    -0.958875254673E+02   -0.25555E-04   -0.11989E-04  8256   0.342E-02    0.474E-02
DAV:  26    -0.958875678064E+02   -0.42339E-04   -0.33011E-05  7488   0.225E-02    0.339E-02
DAV:  27    -0.958876235093E+02   -0.55703E-04   -0.49395E-05  7848   0.223E-02    0.115E-02
DAV:  28    -0.958876752573E+02   -0.51748E-04   -0.11159E-05  7608   0.122E-02    0.109E-02
DAV:  29    -0.958877111272E+02   -0.35870E-04   -0.93294E-06  7536   0.915E-03    0.617E-03
DAV:  30    -0.958878140140E+02   -0.10289E-03   -0.20533E-05  7728   0.123E-02    0.135E-02
DAV:  31    -0.958878460650E+02   -0.32051E-04   -0.35530E-06  7944   0.568E-03    0.770E-03
DAV:  32    -0.958878767049E+02   -0.30640E-04   -0.57085E-06  7536   0.602E-03    0.214E-03
DAV:  33    -0.958878898284E+02   -0.13124E-04   -0.74529E-07  7560   0.264E-03    0.187E-03
DAV:  34    -0.958879000553E+02   -0.10227E-04   -0.37993E-07  6936   0.165E-03    0.136E-03
DAV:  35    -0.958879076214E+02   -0.75661E-05   -0.20798E-07  7128   0.135E-03
   1 F= -.95887699E+02 E0= -.95879396E+02  d E =-.249069E-01
