  17  17   0   0
  0.4847811E+02  0.5557859E-09  0.5557859E-09  0.3080696E-08  0.5000000E-15
  1.000000000000000E-004
  CAR 
 unknown system                          
      6.53556499    -12.06086641  301     -0.69392935      1.00000000
    -12.061  0.0000E+00  0.0000E+00
    -11.999  0.0000E+00  0.0000E+00
    -11.937  0.0000E+00  0.0000E+00
    -11.875  0.0000E+00  0.0000E+00
    -11.813  0.0000E+00  0.0000E+00
    -11.751  0.0000E+00  0.0000E+00
    -11.689 -0.3850E-28 -0.2386E-29
    -11.627 -0.5212E-26 -0.3255E-27
    -11.565 -0.5828E-24 -0.3645E-25
    -11.503 -0.5369E-22 -0.3364E-23
    -11.441 -0.4073E-20 -0.2558E-21
    -11.379 -0.2544E-18 -0.1603E-19
    -11.317 -0.1308E-16 -0.8271E-18
    -11.255 -0.5538E-15 -0.3516E-16
    -11.193 -0.1867E-13 -0.1193E-14
    -11.131 -0.5335E-12 -0.3426E-13
    -11.069 -0.1251E-10 -0.8096E-12
    -11.007 -0.2408E-09 -0.1573E-10
    -10.945 -0.3802E-08 -0.2514E-09
    -10.883 -0.4919E-07 -0.3300E-08
    -10.821 -0.5206E-06 -0.3557E-07
    -10.759 -0.4499E-05 -0.3145E-06
    -10.697 -0.3165E-04 -0.2277E-05
    -10.635 -0.1806E-03 -0.1347E-04
    -10.573 -0.8300E-03 -0.6492E-04
    -10.511 -0.3043E-02 -0.2535E-03
    -10.449 -0.8740E-02 -0.7953E-03
    -10.387 -0.1895E-01 -0.1970E-02
    -10.325 -0.2809E-01 -0.3711E-02
    -10.263 -0.1697E-01 -0.4763E-02
    -10.201  0.4419E-01 -0.2024E-02
    -10.139  0.1744E+00  0.8787E-02
    -10.077  0.3593E+00  0.3106E-01
    -10.015  0.5575E+00  0.6562E-01
     -9.953  0.7318E+00  0.1110E+00
     -9.891  0.8617E+00  0.1644E+00
     -9.829  0.9300E+00  0.2220E+00
     -9.767  0.9220E+00  0.2792E+00
     -9.705  0.8498E+00  0.3319E+00
     -9.643  0.7674E+00  0.3794E+00
     -9.581  0.7507E+00  0.4260E+00
     -9.519  0.8416E+00  0.4781E+00
     -9.457  0.9926E+00  0.5397E+00
     -9.395  0.1090E+01  0.6072E+00
     -9.333  0.1062E+01  0.6730E+00
     -9.271  0.9437E+00  0.7315E+00
     -9.209  0.8222E+00  0.7825E+00
     -9.147  0.7450E+00  0.8287E+00
     -9.085  0.7276E+00  0.8738E+00
     -9.023  0.8104E+00  0.9240E+00
     -8.961  0.1040E+01  0.9885E+00
     -8.899  0.1379E+01  0.1074E+01
     -8.837  0.1692E+01  0.1179E+01
     -8.775  0.1869E+01  0.1295E+01
     -8.714  0.1923E+01  0.1414E+01
     -8.652  0.1927E+01  0.1533E+01
     -8.590  0.1897E+01  0.1651E+01
     -8.528  0.1804E+01  0.1763E+01
     -8.466  0.1693E+01  0.1868E+01
     -8.404  0.1705E+01  0.1973E+01
     -8.342  0.1953E+01  0.2094E+01
     -8.280  0.2369E+01  0.2241E+01
     -8.218  0.2706E+01  0.2409E+01
     -8.156  0.2750E+01  0.2579E+01
     -8.094  0.2523E+01  0.2736E+01
     -8.032  0.2244E+01  0.2875E+01
     -7.970  0.2103E+01  0.3005E+01
     -7.908  0.2145E+01  0.3138E+01
     -7.846  0.2347E+01  0.3284E+01
     -7.784  0.2744E+01  0.3454E+01
     -7.722  0.3398E+01  0.3664E+01
     -7.660  0.4266E+01  0.3929E+01
     -7.598  0.5126E+01  0.4247E+01
     -7.536  0.5741E+01  0.4603E+01
     -7.474  0.6161E+01  0.4984E+01
     -7.412  0.6738E+01  0.5402E+01
     -7.350  0.7756E+01  0.5883E+01
     -7.288  0.9154E+01  0.6450E+01
     -7.226  0.1067E+02  0.7112E+01
     -7.164  0.1211E+02  0.7863E+01
     -7.102  0.1329E+02  0.8687E+01
     -7.040  0.1392E+02  0.9549E+01
     -6.978  0.1377E+02  0.1040E+02
     -6.916  0.1303E+02  0.1121E+02
     -6.854  0.1233E+02  0.1197E+02
     -6.792  0.1252E+02  0.1275E+02
     -6.730  0.1413E+02  0.1363E+02
     -6.668  0.1697E+02  0.1468E+02
     -6.606  0.2020E+02  0.1593E+02
     -6.544  0.2289E+02  0.1735E+02
     -6.482  0.2456E+02  0.1887E+02
     -6.420  0.2526E+02  0.2044E+02
     -6.358  0.2519E+02  0.2200E+02
     -6.296  0.2454E+02  0.2352E+02
     -6.234  0.2356E+02  0.2498E+02
     -6.172  0.2264E+02  0.2638E+02
     -6.110  0.2198E+02  0.2775E+02
     -6.048  0.2145E+02  0.2908E+02
     -5.986  0.2074E+02  0.3036E+02
     -5.924  0.1972E+02  0.3158E+02
     -5.862  0.1856E+02  0.3273E+02
     -5.800  0.1764E+02  0.3383E+02
     -5.738  0.1727E+02  0.3490E+02
     -5.676  0.1753E+02  0.3599E+02
     -5.614  0.1819E+02  0.3711E+02
     -5.552  0.1900E+02  0.3829E+02
     -5.490  0.1973E+02  0.3951E+02
     -5.428  0.2020E+02  0.4077E+02
     -5.366  0.2032E+02  0.4203E+02
     -5.304  0.2007E+02  0.4327E+02
     -5.242  0.1962E+02  0.4449E+02
     -5.180  0.1933E+02  0.4568E+02
     -5.118  0.1951E+02  0.4689E+02
     -5.056  0.2017E+02  0.4814E+02
     -4.994  0.2101E+02  0.4945E+02
     -4.932  0.2168E+02  0.5079E+02
     -4.870  0.2197E+02  0.5215E+02
     -4.808  0.2177E+02  0.5350E+02
     -4.746  0.2129E+02  0.5482E+02
     -4.684  0.2111E+02  0.5613E+02
     -4.622  0.2192E+02  0.5749E+02
     -4.560  0.2400E+02  0.5898E+02
     -4.498  0.2688E+02  0.6064E+02
     -4.436  0.2945E+02  0.6247E+02
     -4.374  0.3054E+02  0.6436E+02
     -4.312  0.2973E+02  0.6620E+02
     -4.250  0.2785E+02  0.6793E+02
     -4.188  0.2654E+02  0.6958E+02
     -4.126  0.2693E+02  0.7125E+02
     -4.064  0.2881E+02  0.7303E+02
     -4.002  0.3110E+02  0.7496E+02
     -3.940  0.3294E+02  0.7700E+02
     -3.878  0.3417E+02  0.7912E+02
     -3.816  0.3495E+02  0.8129E+02
     -3.754  0.3523E+02  0.8347E+02
     -3.692  0.3494E+02  0.8564E+02
     -3.630  0.3428E+02  0.8776E+02
     -3.568  0.3355E+02  0.8984E+02
     -3.507  0.3260E+02  0.9186E+02
     -3.445  0.3083E+02  0.9377E+02
     -3.383  0.2791E+02  0.9550E+02
     -3.321  0.2436E+02  0.9701E+02
     -3.259  0.2116E+02  0.9832E+02
     -3.197  0.1894E+02  0.9950E+02
     -3.135  0.1784E+02  0.1006E+03
     -3.073  0.1794E+02  0.1017E+03
     -3.011  0.1931E+02  0.1029E+03
     -2.949  0.2176E+02  0.1043E+03
     -2.887  0.2464E+02  0.1058E+03
     -2.825  0.2711E+02  0.1075E+03
     -2.763  0.2846E+02  0.1092E+03
     -2.701  0.2818E+02  0.1110E+03
     -2.639  0.2627E+02  0.1126E+03
     -2.577  0.2355E+02  0.1141E+03
     -2.515  0.2135E+02  0.1154E+03
     -2.453  0.2060E+02  0.1167E+03
     -2.391  0.2116E+02  0.1180E+03
     -2.329  0.2231E+02  0.1194E+03
     -2.267  0.2350E+02  0.1208E+03
     -2.205  0.2458E+02  0.1223E+03
     -2.143  0.2544E+02  0.1239E+03
     -2.081  0.2590E+02  0.1255E+03
     -2.019  0.2599E+02  0.1271E+03
     -1.957  0.2608E+02  0.1288E+03
     -1.895  0.2649E+02  0.1304E+03
     -1.833  0.2698E+02  0.1321E+03
     -1.771  0.2693E+02  0.1337E+03
     -1.709  0.2595E+02  0.1353E+03
     -1.647  0.2441E+02  0.1369E+03
     -1.585  0.2314E+02  0.1383E+03
     -1.523  0.2269E+02  0.1397E+03
     -1.461  0.2285E+02  0.1411E+03
     -1.399  0.2292E+02  0.1425E+03
     -1.337  0.2239E+02  0.1439E+03
     -1.275  0.2155E+02  0.1453E+03
     -1.213  0.2134E+02  0.1466E+03
     -1.151  0.2254E+02  0.1480E+03
     -1.089  0.2499E+02  0.1495E+03
     -1.027  0.2770E+02  0.1512E+03
     -0.965  0.2956E+02  0.1531E+03
     -0.903  0.3015E+02  0.1549E+03
     -0.841  0.2985E+02  0.1568E+03
     -0.779  0.2918E+02  0.1586E+03
     -0.717  0.2832E+02  0.1604E+03
     -0.655  0.2719E+02  0.1620E+03
     -0.593  0.2569E+02  0.1636E+03
     -0.531  0.2375E+02  0.1651E+03
     -0.469  0.2132E+02  0.1664E+03
     -0.407  0.1860E+02  0.1676E+03
     -0.345  0.1603E+02  0.1686E+03
     -0.283  0.1404E+02  0.1695E+03
     -0.221  0.1267E+02  0.1702E+03
     -0.159  0.1162E+02  0.1710E+03
     -0.097  0.1050E+02  0.1716E+03
     -0.035  0.9021E+01  0.1722E+03
      0.027  0.7165E+01  0.1726E+03
      0.089  0.5251E+01  0.1729E+03
      0.151  0.3805E+01  0.1732E+03
      0.213  0.3213E+01  0.1734E+03
      0.275  0.3430E+01  0.1736E+03
      0.337  0.4030E+01  0.1738E+03
      0.399  0.4556E+01  0.1741E+03
      0.461  0.4870E+01  0.1744E+03
      0.523  0.5151E+01  0.1747E+03
      0.585  0.5532E+01  0.1751E+03
      0.647  0.5858E+01  0.1754E+03
      0.709  0.5902E+01  0.1758E+03
      0.771  0.5705E+01  0.1762E+03
      0.833  0.5544E+01  0.1765E+03
      0.895  0.5598E+01  0.1769E+03
      0.957  0.5816E+01  0.1772E+03
      1.019  0.6039E+01  0.1776E+03
      1.081  0.6081E+01  0.1780E+03
      1.143  0.5754E+01  0.1783E+03
      1.205  0.5010E+01  0.1786E+03
      1.267  0.4102E+01  0.1789E+03
      1.329  0.3473E+01  0.1791E+03
      1.391  0.3447E+01  0.1793E+03
      1.453  0.4008E+01  0.1796E+03
      1.515  0.4837E+01  0.1799E+03
      1.577  0.5506E+01  0.1802E+03
      1.639  0.5774E+01  0.1806E+03
      1.700  0.5753E+01  0.1809E+03
      1.762  0.5769E+01  0.1813E+03
      1.824  0.5981E+01  0.1816E+03
      1.886  0.6165E+01  0.1820E+03
      1.948  0.5937E+01  0.1824E+03
      2.010  0.5172E+01  0.1827E+03
      2.072  0.4148E+01  0.1830E+03
      2.134  0.3308E+01  0.1832E+03
      2.196  0.2982E+01  0.1834E+03
      2.258  0.3282E+01  0.1836E+03
      2.320  0.4097E+01  0.1838E+03
      2.382  0.5134E+01  0.1841E+03
      2.444  0.6066E+01  0.1845E+03
      2.506  0.6671E+01  0.1849E+03
      2.568  0.6852E+01  0.1854E+03
      2.630  0.6569E+01  0.1858E+03
      2.692  0.5854E+01  0.1861E+03
      2.754  0.4919E+01  0.1864E+03
      2.816  0.4133E+01  0.1867E+03
      2.878  0.3781E+01  0.1869E+03
      2.940  0.3851E+01  0.1872E+03
      3.002  0.4104E+01  0.1874E+03
      3.064  0.4321E+01  0.1877E+03
      3.126  0.4442E+01  0.1880E+03
      3.188  0.4497E+01  0.1882E+03
      3.250  0.4476E+01  0.1885E+03
      3.312  0.4297E+01  0.1888E+03
      3.374  0.3924E+01  0.1890E+03
      3.436  0.3503E+01  0.1892E+03
      3.498  0.3295E+01  0.1894E+03
      3.560  0.3411E+01  0.1897E+03
      3.622  0.3679E+01  0.1899E+03
      3.684  0.3830E+01  0.1901E+03
      3.746  0.3775E+01  0.1904E+03
      3.808  0.3597E+01  0.1906E+03
      3.870  0.3368E+01  0.1908E+03
      3.932  0.3074E+01  0.1910E+03
      3.994  0.2740E+01  0.1911E+03
      4.056  0.2483E+01  0.1913E+03
      4.118  0.2386E+01  0.1915E+03
      4.180  0.2355E+01  0.1916E+03
      4.242  0.2184E+01  0.1917E+03
      4.304  0.1755E+01  0.1918E+03
      4.366  0.1168E+01  0.1919E+03
      4.428  0.6429E+00  0.1920E+03
      4.490  0.3286E+00  0.1920E+03
      4.552  0.2014E+00  0.1920E+03
      4.614  0.1484E+00  0.1920E+03
      4.676  0.9349E-01  0.1920E+03
      4.738  0.3467E-01  0.1920E+03
      4.800 -0.3898E-02  0.1920E+03
      4.862 -0.1564E-01  0.1920E+03
      4.924 -0.1223E-01  0.1920E+03
      4.986 -0.6084E-02  0.1920E+03
      5.048 -0.2219E-02  0.1920E+03
      5.110 -0.6239E-03  0.1920E+03
      5.172 -0.1384E-03  0.1920E+03
      5.234 -0.2456E-04  0.1920E+03
      5.296 -0.3514E-05  0.1920E+03
      5.358 -0.4076E-06  0.1920E+03
      5.420 -0.3848E-07  0.1920E+03
      5.482 -0.2964E-08  0.1920E+03
      5.544 -0.1867E-09  0.1920E+03
      5.606 -0.9635E-11  0.1920E+03
      5.668 -0.4078E-12  0.1920E+03
      5.730 -0.1403E-13  0.1920E+03
      5.792 -0.4478E-15  0.1920E+03
      5.854  0.0000E+00  0.1920E+03
      5.916  0.0000E+00  0.1920E+03
      5.978  0.0000E+00  0.1920E+03
      6.040  0.0000E+00  0.1920E+03
      6.102  0.0000E+00  0.1920E+03
      6.164  0.0000E+00  0.1920E+03
      6.226  0.0000E+00  0.1920E+03
      6.288  0.0000E+00  0.1920E+03
      6.350  0.0000E+00  0.1920E+03
      6.412  0.0000E+00  0.1920E+03
      6.474  0.0000E+00  0.1920E+03
      6.536  0.0000E+00  0.1920E+03
