<?xml version="1.0" encoding="ISO-8859-1"?>
<modeling>
 <generator>
  <i name="program" type="string">vasp </i>
  <i name="version" type="string">5.4.4.18Apr17-6-g9f103f2a35  </i>
  <i name="subversion" type="string">(build Apr 28 2017 10:53:45) complex            parallel </i>
  <i name="platform" type="string">LinuxIFC </i>
  <i name="date" type="string">2020 02 17 </i>
  <i name="time" type="string">09:19:52 </i>
 </generator>
 <incar>
  <i type="string" name="PREC">normal</i>
  <i type="int" name="ISPIN">     1</i>
  <i type="int" name="IBRION">     2</i>
  <i name="EDIFF">      0.00001000</i>
  <i name="EDIFFG">     -0.05000000</i>
  <i type="int" name="NSW">     0</i>
  <i name="ENCUT">    350.00000000</i>
  <i type="logical" name="LWAVE"> F  </i>
  <i type="logical" name="LCHARG"> F  </i>
  <v type="int" name="KPOINT_BSE">    -1     0     0     0</v>
  <i type="string" name="GGA"> PE</i>
  <i type="int" name="IDIPOL">     3</i>
 </incar>
 <structure name="primitive_cell" >
  <crystal>
   <varray name="basis" >
    <v>       5.55785930       0.00000000       0.00000000 </v>
    <v>       2.77892965       4.81324734       0.00000000 </v>
    <v>       0.00000000       0.00000000      30.80695967 </v>
   </varray>
   <i name="volume">    824.12780743 </i>
   <varray name="rec_basis" >
    <v>       0.17992539      -0.10387997       0.00000000 </v>
    <v>       0.00000000       0.20775994       0.00000000 </v>
    <v>       0.00000000       0.00000000       0.03246020 </v>
   </varray>
  </crystal>
  <varray name="positions" >
   <v>       0.00000000       0.00000000       0.38952237 </v>
   <v>       0.00000000      -0.50000000       0.38952237 </v>
   <v>      -0.50000000      -0.50000000       0.38952237 </v>
   <v>      -0.50000000       0.00000000       0.38952237 </v>
   <v>       0.16652883       0.16652883       0.46542487 </v>
   <v>       0.16652883      -0.33305766       0.46542487 </v>
   <v>      -0.33305766       0.16652883       0.46542487 </v>
   <v>      -0.33333333      -0.33333333       0.46426737 </v>
   <v>      -0.16603131      -0.16603131      -0.45994801 </v>
   <v>      -0.16603131       0.33206261      -0.45994801 </v>
   <v>       0.33206261      -0.16603131      -0.45994801 </v>
   <v>       0.33333333       0.33333333      -0.46005508 </v>
   <v>       0.00000000       0.00000000      -0.38095648 </v>
   <v>      -0.49951272      -0.00097456      -0.38501086 </v>
   <v>      -0.00097456      -0.49951272      -0.38501086 </v>
   <v>      -0.49951272      -0.49951272      -0.38501086 </v>
   <v>       0.00000000       0.00000000      -0.33046564 </v>
  </varray>
 </structure>
 <varray name="primitive_index" >
  <v type="int" >        1 </v>
  <v type="int" >        3 </v>
  <v type="int" >        4 </v>
  <v type="int" >        2 </v>
  <v type="int" >        5 </v>
  <v type="int" >        7 </v>
  <v type="int" >        6 </v>
  <v type="int" >        8 </v>
  <v type="int" >       11 </v>
  <v type="int" >        9 </v>
  <v type="int" >       16 </v>
  <v type="int" >       10 </v>
  <v type="int" >       12 </v>
  <v type="int" >       13 </v>
  <v type="int" >       14 </v>
  <v type="int" >       15 </v>
  <v type="int" >       17 </v>
 </varray>
 <kpoints>
  <generation param="Monkhorst-Pack">
   <v type="int" name="divisions">       8        8        1 </v>
   <v name="usershift">      0.00000000       0.00000000       0.00000000 </v>
   <v name="genvec1">      0.12500000       0.00000000       0.00000000 </v>
   <v name="genvec2">      0.00000000       0.12500000       0.00000000 </v>
   <v name="genvec3">      0.00000000       0.00000000       1.00000000 </v>
   <v name="shift">      0.50000000       0.50000000       0.00000000 </v>
  </generation>
  <varray name="kpointlist" >
   <v>       0.06250000       0.06250000       0.00000000 </v>
   <v>      -0.06250000       0.00000000       0.00000000 </v>
   <v>       0.18750000       0.06250000       0.00000000 </v>
   <v>       0.12500000       0.18750000       0.00000000 </v>
   <v>      -0.06250000       0.12500000       0.00000000 </v>
   <v>       0.31250000       0.06250000       0.00000000 </v>
   <v>       0.25000000       0.31250000       0.00000000 </v>
   <v>      -0.06250000       0.25000000       0.00000000 </v>
   <v>       0.43750000       0.06250000       0.00000000 </v>
   <v>       0.37500000       0.43750000       0.00000000 </v>
   <v>      -0.06250000       0.37500000       0.00000000 </v>
   <v>      -0.43750000       0.06250000       0.00000000 </v>
   <v>       0.50000000      -0.43750000       0.00000000 </v>
   <v>      -0.06250000       0.50000000       0.00000000 </v>
   <v>      -0.31250000       0.06250000       0.00000000 </v>
   <v>      -0.37500000      -0.31250000       0.00000000 </v>
   <v>      -0.06250000      -0.37500000       0.00000000 </v>
   <v>      -0.18750000       0.06250000       0.00000000 </v>
   <v>      -0.25000000      -0.18750000       0.00000000 </v>
   <v>      -0.06250000      -0.25000000       0.00000000 </v>
   <v>      -0.06250000       0.06250000       0.00000000 </v>
   <v>      -0.06250000      -0.12500000       0.00000000 </v>
   <v>       0.18750000       0.18750000       0.00000000 </v>
   <v>      -0.18750000       0.00000000       0.00000000 </v>
   <v>       0.31250000       0.18750000       0.00000000 </v>
   <v>       0.12500000       0.31250000       0.00000000 </v>
   <v>      -0.18750000       0.12500000       0.00000000 </v>
   <v>       0.43750000       0.18750000       0.00000000 </v>
   <v>       0.25000000       0.43750000       0.00000000 </v>
   <v>      -0.18750000       0.25000000       0.00000000 </v>
   <v>      -0.43750000       0.18750000       0.00000000 </v>
   <v>       0.37500000      -0.43750000       0.00000000 </v>
   <v>      -0.18750000       0.37500000       0.00000000 </v>
   <v>      -0.31250000       0.18750000       0.00000000 </v>
   <v>       0.50000000      -0.31250000       0.00000000 </v>
   <v>      -0.18750000       0.50000000       0.00000000 </v>
   <v>      -0.18750000       0.18750000       0.00000000 </v>
   <v>      -0.18750000      -0.37500000       0.00000000 </v>
   <v>       0.31250000       0.31250000       0.00000000 </v>
   <v>      -0.31250000       0.00000000       0.00000000 </v>
   <v>       0.43750000       0.31250000       0.00000000 </v>
   <v>       0.12500000       0.43750000       0.00000000 </v>
   <v>      -0.31250000       0.12500000       0.00000000 </v>
   <v>      -0.43750000       0.31250000       0.00000000 </v>
   <v>       0.25000000      -0.43750000       0.00000000 </v>
   <v>      -0.31250000       0.25000000       0.00000000 </v>
   <v>      -0.31250000       0.31250000       0.00000000 </v>
   <v>      -0.31250000       0.37500000       0.00000000 </v>
   <v>       0.43750000       0.43750000       0.00000000 </v>
   <v>      -0.43750000       0.00000000       0.00000000 </v>
   <v>      -0.43750000       0.43750000       0.00000000 </v>
   <v>      -0.43750000       0.12500000       0.00000000 </v>
  </varray>
  <varray name="weights" >
   <v>       0.02083333 </v>
   <v>       0.01041667 </v>
   <v>       0.02083333 </v>
   <v>       0.02083333 </v>
   <v>       0.02083333 </v>
   <v>       0.02083333 </v>
   <v>       0.02083333 </v>
   <v>       0.02083333 </v>
   <v>       0.02083333 </v>
   <v>       0.02083333 </v>
   <v>       0.02083333 </v>
   <v>       0.02083333 </v>
   <v>       0.02083333 </v>
   <v>       0.02083333 </v>
   <v>       0.02083333 </v>
   <v>       0.02083333 </v>
   <v>       0.02083333 </v>
   <v>       0.02083333 </v>
   <v>       0.02083333 </v>
   <v>       0.02083333 </v>
   <v>       0.02083333 </v>
   <v>       0.01041667 </v>
   <v>       0.02083333 </v>
   <v>       0.01041667 </v>
   <v>       0.02083333 </v>
   <v>       0.02083333 </v>
   <v>       0.02083333 </v>
   <v>       0.02083333 </v>
   <v>       0.02083333 </v>
   <v>       0.02083333 </v>
   <v>       0.02083333 </v>
   <v>       0.02083333 </v>
   <v>       0.02083333 </v>
   <v>       0.02083333 </v>
   <v>       0.02083333 </v>
   <v>       0.02083333 </v>
   <v>       0.02083333 </v>
   <v>       0.01041667 </v>
   <v>       0.02083333 </v>
   <v>       0.01041667 </v>
   <v>       0.02083333 </v>
   <v>       0.02083333 </v>
   <v>       0.02083333 </v>
   <v>       0.02083333 </v>
   <v>       0.02083333 </v>
   <v>       0.02083333 </v>
   <v>       0.02083333 </v>
   <v>       0.01041667 </v>
   <v>       0.02083333 </v>
   <v>       0.01041667 </v>
   <v>       0.02083333 </v>
   <v>       0.01041667 </v>
  </varray>
 </kpoints>
 <parameters>
  <separator name="general" >
   <i type="string" name="SYSTEM">unknown system</i>
   <i type="logical" name="LCOMPAT"> F  </i>
  </separator>
  <separator name="electronic" >
   <i type="string" name="PREC">normal</i>
   <i name="ENMAX">    350.00000000</i>
   <i name="ENAUG">    400.00000000</i>
   <i name="EDIFF">      0.00001000</i>
   <i type="int" name="IALGO">    38</i>
   <i type="int" name="IWAVPR">    10</i>
   <i type="int" name="NBANDS">    96</i>
   <i name="NELECT">    161.00000000</i>
   <i type="int" name="TURBO">     0</i>
   <i type="int" name="IRESTART">     0</i>
   <i type="int" name="NREBOOT">     0</i>
   <i type="int" name="NMIN">     0</i>
   <i name="EREF">      0.00000000</i>
   <separator name="electronic smearing" >
    <i type="int" name="ISMEAR">     1</i>
    <i name="SIGMA">      0.20000000</i>
    <i name="KSPACING">      0.50000000</i>
    <i type="logical" name="KGAMMA"> T  </i>
   </separator>
   <separator name="electronic projectors" >
    <i type="logical" name="LREAL"> F  </i>
    <v name="ROPT">      0.00000000      0.00000000      0.00000000      0.00000000</v>
    <i type="int" name="LMAXPAW">  -100</i>
    <i type="int" name="LMAXMIX">     2</i>
    <i type="logical" name="NLSPLINE"> F  </i>
   </separator>
   <separator name="electronic startup" >
    <i type="int" name="ISTART">     0</i>
    <i type="int" name="ICHARG">     2</i>
    <i type="int" name="INIWAV">     1</i>
   </separator>
   <separator name="electronic spin" >
    <i type="int" name="ISPIN">     1</i>
    <i type="logical" name="LNONCOLLINEAR"> F  </i>
    <v name="MAGMOM">      1.00000000      1.00000000      1.00000000      1.00000000      1.00000000      1.00000000      1.00000000      1.00000000      1.00000000      1.00000000      1.00000000      1.00000000      1.00000000      1.00000000      1.00000000      1.00000000      1.00000000</v>
    <i name="NUPDOWN">     -1.00000000</i>
    <i type="logical" name="LSORBIT"> F  </i>
    <v name="SAXIS">      0.00000000      0.00000000      1.00000000</v>
    <i type="logical" name="LSPIRAL"> F  </i>
    <v name="QSPIRAL">      0.00000000      0.00000000      0.00000000</v>
    <i type="logical" name="LZEROZ"> F  </i>
   </separator>
   <separator name="electronic exchange-correlation" >
    <i type="logical" name="LASPH"> F  </i>
    <i type="logical" name="LMETAGGA"> F  </i>
   </separator>
   <separator name="electronic convergence" >
    <i type="int" name="NELM">    60</i>
    <i type="int" name="NELMDL">    -5</i>
    <i type="int" name="NELMIN">     2</i>
    <i name="ENINI">    350.00000000</i>
    <separator name="electronic convergence detail" >
     <i type="logical" name="LDIAG"> T  </i>
     <i type="logical" name="LSUBROT"> F  </i>
     <i name="WEIMIN">      0.00000000</i>
     <i name="EBREAK">      0.00000003</i>
     <i name="DEPER">      0.30000000</i>
     <i type="int" name="NRMM">     4</i>
     <i name="TIME">      0.40000000</i>
    </separator>
   </separator>
   <separator name="electronic mixer" >
    <i name="AMIX">      0.40000000</i>
    <i name="BMIX">      1.00000000</i>
    <i name="AMIN">      0.10000000</i>
    <i name="AMIX_MAG">      1.60000000</i>
    <i name="BMIX_MAG">      1.00000000</i>
    <separator name="electronic mixer details" >
     <i type="int" name="IMIX">     4</i>
     <i type="logical" name="MIXFIRST"> F  </i>
     <i type="int" name="MAXMIX">   -45</i>
     <i name="WC">    100.00000000</i>
     <i type="int" name="INIMIX">     1</i>
     <i type="int" name="MIXPRE">     1</i>
     <i type="int" name="MREMOVE">     5</i>
    </separator>
   </separator>
   <separator name="electronic dipolcorrection" >
    <i type="logical" name="LDIPOL"> F  </i>
    <i type="logical" name="LMONO"> F  </i>
    <i type="int" name="IDIPOL">     3</i>
    <i name="EPSILON">      1.00000000</i>
    <v name="DIPOL">   -100.00000000   -100.00000000   -100.00000000</v>
    <i name="EFIELD">      0.00000000</i>
   </separator>
  </separator>
  <separator name="grids" >
   <i type="int" name="NGX">    28</i>
   <i type="int" name="NGY">    28</i>
   <i type="int" name="NGZ">   144</i>
   <i type="int" name="NGXF">    56</i>
   <i type="int" name="NGYF">    56</i>
   <i type="int" name="NGZF">   288</i>
   <i type="logical" name="ADDGRID"> F  </i>
  </separator>
  <separator name="ionic" >
   <i type="int" name="NSW">     0</i>
   <i type="int" name="IBRION">    -1</i>
   <i type="int" name="MDALGO">     0</i>
   <i type="int" name="ISIF">     2</i>
   <i name="PSTRESS">      0.00000000</i>
   <i name="EDIFFG">     -0.05000000</i>
   <i type="int" name="NFREE">     1</i>
   <i name="POTIM">      0.50000000</i>
   <i name="SMASS">     -3.00000000</i>
   <i name="SCALEE">      1.00000000</i>
  </separator>
  <separator name="ionic md" >
   <i name="TEBEG">      0.00010000</i>
   <i name="TEEND">      0.00010000</i>
   <i type="int" name="NBLOCK">     1</i>
   <i type="int" name="KBLOCK">     1</i>
   <i type="int" name="NPACO">   256</i>
   <i name="APACO">     16.00000000</i>
  </separator>
  <separator name="symmetry" >
   <i type="int" name="ISYM">     2</i>
   <i name="SYMPREC">      0.00001000</i>
  </separator>
  <separator name="dos" >
   <i type="int" name="LORBIT">     0</i>
   <v name="RWIGS">     -1.00000000     -1.00000000     -1.00000000     -1.00000000</v>
   <i type="int" name="NEDOS">   301</i>
   <i name="EMIN">     10.00000000</i>
   <i name="EMAX">    -10.00000000</i>
   <i name="EFERMI">      0.00000000</i>
  </separator>
  <separator name="writing" >
   <i type="int" name="NWRITE">     2</i>
   <i type="logical" name="LWAVE"> F  </i>
   <i type="logical" name="LDOWNSAMPLE"> F  </i>
   <i type="logical" name="LCHARG"> F  </i>
   <i type="logical" name="LPARD"> F  </i>
   <i type="logical" name="LVTOT"> F  </i>
   <i type="logical" name="LVHAR"> F  </i>
   <i type="logical" name="LELF"> F  </i>
   <i type="logical" name="LOPTICS"> F  </i>
   <v name="STM">      0.00000000      0.00000000      0.00000000      0.00000000      0.00000000      0.00000000      0.00000000</v>
  </separator>
  <separator name="performance" >
   <i type="int" name="NPAR">    24</i>
   <i type="int" name="NSIM">     4</i>
   <i type="int" name="NBLK">    -1</i>
   <i type="logical" name="LPLANE"> T  </i>
   <i type="logical" name="LSCALAPACK"> T  </i>
   <i type="logical" name="LSCAAWARE"> F  </i>
   <i type="logical" name="LSCALU"> F  </i>
   <i type="logical" name="LASYNC"> F  </i>
   <i type="logical" name="LORBITALREAL"> F  </i>
  </separator>
  <separator name="miscellaneous" >
   <i type="int" name="IDIOT">     3</i>
   <i type="int" name="ISPECIAL">     0</i>
   <i type="logical" name="LMUSIC"> F  </i>
   <v name="POMASS">    196.96600000    195.08000000    192.22000000      1.00000000</v>
   <v name="DARWINR">      0.00000000      0.00000000      0.00000000      0.00000000</v>
   <v name="DARWINV">      1.00000000      1.00000000      1.00000000      1.00000000</v>
   <i type="logical" name="LCORR"> T  </i>
  </separator>
  <i type="logical" name="GGA_COMPAT"> T  </i>
  <i type="logical" name="LBERRY"> F  </i>
  <i type="int" name="ICORELEVEL">     0</i>
  <i type="logical" name="LDAU"> F  </i>
  <i type="int" name="I_CONSTRAINED_M">     0</i>
  <separator name="electronic exchange-correlation" >
   <i type="string" name="GGA">PE</i>
   <i type="int" name="VOSKOWN">     0</i>
   <i type="logical" name="LHFCALC"> F  </i>
   <i type="string" name="PRECFOCK"></i>
   <i type="logical" name="LSYMGRAD"> F  </i>
   <i type="logical" name="LHFONE"> F  </i>
   <i type="logical" name="LRHFCALC"> F  </i>
   <i type="logical" name="LTHOMAS"> F  </i>
   <i type="logical" name="LMODELHF"> F  </i>
   <i name="ENCUT4O">     -1.00000000</i>
   <i type="int" name="EXXOEP">     0</i>
   <i type="int" name="FOURORBIT">     0</i>
   <i name="AEXX">      0.00000000</i>
   <i name="HFALPHA">      0.00000000</i>
   <i name="MCALPHA">      0.00000000</i>
   <i name="ALDAX">      1.00000000</i>
   <i name="AGGAX">      1.00000000</i>
   <i name="ALDAC">      1.00000000</i>
   <i name="AGGAC">      1.00000000</i>
   <i type="int" name="NKREDX">     1</i>
   <i type="int" name="NKREDY">     1</i>
   <i type="int" name="NKREDZ">     1</i>
   <i type="logical" name="SHIFTRED"> F  </i>
   <i type="logical" name="ODDONLY"> F  </i>
   <i type="logical" name="EVENONLY"> F  </i>
   <i type="int" name="LMAXFOCK">     0</i>
   <i type="int" name="NMAXFOCKAE">     0</i>
   <i type="logical" name="LFOCKAEDFT"> F  </i>
   <i name="HFSCREEN">      0.00000000</i>
   <i name="HFSCREENC">      0.00000000</i>
   <i type="int" name="NBANDSGWLOW">     0</i>
  </separator>
  <separator name="vdW DFT" >
   <i type="logical" name="LUSE_VDW"> F  </i>
   <i name="Zab_VDW">     -0.84910000</i>
   <i name="PARAM1">      0.12340000</i>
   <i name="PARAM2">      1.00000000</i>
   <i name="PARAM3">      0.00000000</i>
  </separator>
  <separator name="model GW" >
   <i type="int" name="MODEL_GW">     0</i>
   <i name="MODEL_EPS0">     29.08686379</i>
   <i name="MODEL_ALPHA">      1.00000000</i>
  </separator>
  <separator name="linear response parameters" >
   <i type="logical" name="LEPSILON"> F  </i>
   <i type="logical" name="LRPA"> F  </i>
   <i type="logical" name="LNABLA"> F  </i>
   <i type="logical" name="LVEL"> F  </i>
   <i type="int" name="KINTER">     0</i>
   <i name="CSHIFT">      0.10000000</i>
   <i name="OMEGAMAX">     -1.00000000</i>
   <i name="DEG_THRESHOLD">      0.00200000</i>
   <i name="RTIME">     -0.10000000</i>
   <i name="WPLASMAI">      0.00000000</i>
   <v name="DFIELD">      0.00000000      0.00000000      0.00000000</v>
   <v name="WPLASMA">      0.00000000      0.00000000      0.00000000      0.00000000      0.00000000      0.00000000      0.00000000      0.00000000      0.00000000</v>
  </separator>
  <separator name="orbital magnetization" >
   <i type="logical" name="NUCIND"> F  </i>
   <v name="MAGPOS">      0.00000000      0.00000000      0.00000000</v>
   <i type="logical" name="LNICSALL"> T  </i>
   <i type="logical" name="ORBITALMAG"> F  </i>
   <i type="logical" name="LMAGBLOCH"> F  </i>
   <i type="logical" name="LCHIMAG"> F  </i>
   <i type="logical" name="LGAUGE"> T  </i>
   <i type="int" name="MAGATOM">     0</i>
   <v name="MAGDIPOL">      0.00000000      0.00000000      0.00000000</v>
   <v name="AVECCONST">      0.00000000      0.00000000      0.00000000</v>
  </separator>
  <separator name="response functions" >
   <i type="logical" name="LADDER"> F  </i>
   <i type="logical" name="LRPAFORCE"> F  </i>
   <i type="logical" name="LFXC"> F  </i>
   <i type="logical" name="LHARTREE"> T  </i>
   <i type="int" name="IBSE">     0</i>
   <v type="int" name="KPOINT">    -1     0     0     0</v>
   <i type="logical" name="LTCTE"> F  </i>
   <i type="logical" name="LTETE"> F  </i>
   <i type="logical" name="LTRIPLET"> F  </i>
   <i type="logical" name="LFXCEPS"> F  </i>
   <i type="logical" name="LFXHEG"> F  </i>
   <i type="int" name="NATURALO">     2</i>
   <i type="logical" name="L2ORDER"> F  </i>
   <i type="logical" name="LMP2LT"> F  </i>
   <i type="logical" name="LUSEW"> F  </i>
   <i name="ENCUTGW">     -2.00000000</i>
   <i name="ENCUTGWSOFT">     -2.00000000</i>
   <i name="ENCUTLF">     -1.00000000</i>
   <i type="int" name="LMAXMP2">    -1</i>
   <i name="SCISSOR">      0.00000000</i>
   <i type="int" name="NOMEGA">     0</i>
   <i type="int" name="NOMEGAR">     0</i>
   <i type="int" name="NBANDSGW">    -1</i>
   <i type="int" name="NBANDSO">    -1</i>
   <i type="int" name="NBANDSV">    -1</i>
   <i type="int" name="NELM">     1</i>
   <i type="int" name="NELMHF">     1</i>
   <i type="int" name="DIM">     3</i>
   <i type="int" name="ANTIRES">     0</i>
   <i name="OMEGAMAX">    -30.00000000</i>
   <i name="OMEGAMIN">    -30.00000000</i>
   <i name="OMEGATL">   -200.00000000</i>
   <i type="int" name="OMEGAGRID">   140</i>
   <i name="CSHIFT">     -0.10000000</i>
   <i type="logical" name="SELFENERGY"> F  </i>
   <i type="logical" name="LSPECTRAL"> F  </i>
   <i type="logical" name="LSPECTRALGW"> F  </i>
   <i type="logical" name="LSINGLES"> F  </i>
   <i type="logical" name="LFERMIGW"> F  </i>
   <i type="logical" name="ODDONLYGW"> F  </i>
   <i type="logical" name="EVENONLYGW"> F  </i>
   <i type="int" name="NKREDLFX">     1</i>
   <i type="int" name="NKREDLFY">     1</i>
   <i type="int" name="NKREDLFZ">     1</i>
   <i type="int" name="MAXMEM">  2800</i>
   <i type="int" name="TELESCOPE">     0</i>
   <i type="int" name="TAUPAR">     1</i>
   <i type="int" name="OMEGAPAR">    -1</i>
   <i name="LAMBDA">      1.00000000</i>
  </separator>
  <separator name="External order field" >
   <i name="OFIELD_KAPPA">      0.00000000</i>
   <v name="OFIELD_K">      0.00000000      0.00000000      0.00000000</v>
   <i name="OFIELD_Q6_NEAR">      0.00000000</i>
   <i name="OFIELD_Q6_FAR">      0.00000000</i>
   <i name="OFIELD_A">      0.00000000</i>
  </separator>
 </parameters>
 <atominfo>
  <atoms>      17 </atoms>
  <types>       4 </types>
  <array name="atoms" >
   <dimension dim="1">ion</dimension>
   <field type="string">element</field>
   <field type="int">atomtype</field>
   <set>
    <rc><c>Au</c><c>   1</c></rc>
    <rc><c>Pt</c><c>   2</c></rc>
    <rc><c>Pt</c><c>   2</c></rc>
    <rc><c>Pt</c><c>   2</c></rc>
    <rc><c>Pt</c><c>   2</c></rc>
    <rc><c>Pt</c><c>   2</c></rc>
    <rc><c>Pt</c><c>   2</c></rc>
    <rc><c>Pt</c><c>   2</c></rc>
    <rc><c>Pt</c><c>   2</c></rc>
    <rc><c>Pt</c><c>   2</c></rc>
    <rc><c>Pt</c><c>   2</c></rc>
    <rc><c>Pt</c><c>   2</c></rc>
    <rc><c>Pt</c><c>   2</c></rc>
    <rc><c>Pt</c><c>   2</c></rc>
    <rc><c>Pt</c><c>   2</c></rc>
    <rc><c>Ir</c><c>   3</c></rc>
    <rc><c>H </c><c>   4</c></rc>
   </set>
  </array>
  <array name="atomtypes" >
   <dimension dim="1">type</dimension>
   <field type="int">atomspertype</field>
   <field type="string">element</field>
   <field>mass</field>
   <field>valence</field>
   <field type="string">pseudopotential</field>
   <set>
    <rc><c>   1</c><c>Au</c><c>    196.96600000</c><c>     11.00000000</c><c>  PAW_PBE Au 04Oct2007                  </c></rc>
    <rc><c>  14</c><c>Pt</c><c>    195.08000000</c><c>     10.00000000</c><c>  PAW_PBE Pt 04Feb2005                  </c></rc>
    <rc><c>   1</c><c>Ir</c><c>    192.22000000</c><c>      9.00000000</c><c>  PAW_PBE Ir 06Sep2000                  </c></rc>
    <rc><c>   1</c><c>H </c><c>      1.00000000</c><c>      1.00000000</c><c>  PAW_PBE H 15Jun2001                   </c></rc>
   </set>
  </array>
 </atominfo>
 <structure name="initialpos" >
  <crystal>
   <varray name="basis" >
    <v>       5.55785930       0.00000000       0.00000000 </v>
    <v>       2.77892965       4.81324734       0.00000000 </v>
    <v>       0.00000000       0.00000000      30.80695967 </v>
   </varray>
   <i name="volume">    824.12780743 </i>
   <varray name="rec_basis" >
    <v>       0.17992539      -0.10387997       0.00000000 </v>
    <v>       0.00000000       0.20775994       0.00000000 </v>
    <v>       0.00000000       0.00000000       0.03246020 </v>
   </varray>
  </crystal>
  <varray name="positions" >
   <v>       0.00000000       0.00000000       0.38952237 </v>
   <v>       0.50000000       0.00000000       0.38952237 </v>
   <v>       0.00000000       0.50000000       0.38952237 </v>
   <v>       0.50000000       0.50000000       0.38952237 </v>
   <v>       0.16652883       0.16652883       0.46542487 </v>
   <v>       0.66694234       0.16652883       0.46542487 </v>
   <v>       0.16652883       0.66694234       0.46542487 </v>
   <v>       0.66666667       0.66666667       0.46426737 </v>
   <v>       0.83396869       0.33206261       0.54005199 </v>
   <v>       0.33333333       0.33333333       0.53994492 </v>
   <v>       0.83396869       0.83396869       0.54005199 </v>
   <v>       0.00000000       0.00000000       0.61904352 </v>
   <v>       0.50048728       0.99902544       0.61498914 </v>
   <v>       0.99902544       0.50048728       0.61498914 </v>
   <v>       0.50048728       0.50048728       0.61498914 </v>
   <v>       0.33206261       0.83396869       0.54005199 </v>
   <v>       0.00000000       0.00000000       0.66953436 </v>
  </varray>
  <varray name="selective"  type="logical" >
   <v type="logical" >  F  F  F </v>
   <v type="logical" >  F  F  F </v>
   <v type="logical" >  F  F  F </v>
   <v type="logical" >  F  F  F </v>
   <v type="logical" >  T  T  T </v>
   <v type="logical" >  T  T  T </v>
   <v type="logical" >  T  T  T </v>
   <v type="logical" >  T  T  T </v>
   <v type="logical" >  T  T  T </v>
   <v type="logical" >  T  T  T </v>
   <v type="logical" >  T  T  T </v>
   <v type="logical" >  T  T  T </v>
   <v type="logical" >  T  T  T </v>
   <v type="logical" >  T  T  T </v>
   <v type="logical" >  T  T  T </v>
   <v type="logical" >  T  T  T </v>
   <v type="logical" >  T  T  T </v>
  </varray>
  <nose>
   <v>      -3.00000000       0.00000000       0.00010000       0.00010000 </v>
  </nose>
 </structure>
 <calculation>
  <scstep>
   <time name="dav">    9.29    9.29</time>
   <time name="total">    9.31    9.33</time>
   <energy>
    <i name="alphaZ">    305.89839443 </i>
    <i name="ewald">  98129.21404172 </i>
    <i name="hartreedc">-110216.01918248 </i>
    <i name="XCdc">     48.82102570 </i>
    <i name="pawpsdc">  11173.35063782 </i>
    <i name="pawaedc"> -10713.98924482 </i>
    <i name="eentropy">     -0.00711617 </i>
    <i name="bandstr">    546.96096283 </i>
    <i name="atom">  11706.16234457 </i>
    <i name="e_fr_energy">    980.39186360 </i>
    <i name="e_wo_entrp">    980.39897977 </i>
    <i name="e_0_energy">    980.39423565 </i>
   </energy>
  </scstep>
  <scstep>
   <time name="dav">   13.09   13.09</time>
   <time name="total">   13.09   13.09</time>
   <energy>
    <i name="e_fr_energy">    -42.99702501 </i>
    <i name="e_wo_entrp">    -42.98895107 </i>
    <i name="e_0_energy">    -42.99433370 </i>
   </energy>
  </scstep>
  <scstep>
   <time name="dav">   11.33   11.34</time>
   <time name="total">   11.34   11.34</time>
   <energy>
    <i name="e_fr_energy">   -101.73427981 </i>
    <i name="e_wo_entrp">   -101.71672249 </i>
    <i name="e_0_energy">   -101.72842737 </i>
   </energy>
  </scstep>
  <scstep>
   <time name="dav">   12.62   12.62</time>
   <time name="total">   12.62   12.62</time>
   <energy>
    <i name="e_fr_energy">   -102.99980159 </i>
    <i name="e_wo_entrp">   -102.98272613 </i>
    <i name="e_0_energy">   -102.99410977 </i>
   </energy>
  </scstep>
  <scstep>
   <time name="dav">   13.41   13.41</time>
   <time name="total">   13.73   13.73</time>
   <energy>
    <i name="e_fr_energy">   -103.03204208 </i>
    <i name="e_wo_entrp">   -103.01496835 </i>
    <i name="e_0_energy">   -103.02635084 </i>
   </energy>
  </scstep>
  <scstep>
   <time name="dav">   10.93   10.93</time>
   <time name="total">   11.27   11.28</time>
   <energy>
    <i name="e_fr_energy">    -98.65945331 </i>
    <i name="e_wo_entrp">    -98.61850067 </i>
    <i name="e_0_energy">    -98.64580243 </i>
   </energy>
  </scstep>
  <scstep>
   <time name="dav">   12.35   12.35</time>
   <time name="total">   12.69   12.69</time>
   <energy>
    <i name="e_fr_energy">   -126.38234538 </i>
    <i name="e_wo_entrp">   -126.37793641 </i>
    <i name="e_0_energy">   -126.38087572 </i>
   </energy>
  </scstep>
  <scstep>
   <time name="dav">   11.62   11.63</time>
   <time name="total">   11.96   11.97</time>
   <energy>
    <i name="e_fr_energy">   -106.09650764 </i>
    <i name="e_wo_entrp">   -106.10468374 </i>
    <i name="e_0_energy">   -106.09923301 </i>
   </energy>
  </scstep>
  <scstep>
   <time name="dav">   12.86   12.87</time>
   <time name="total">   13.20   13.20</time>
   <energy>
    <i name="e_fr_energy">   -106.14529364 </i>
    <i name="e_wo_entrp">   -106.15001247 </i>
    <i name="e_0_energy">   -106.14686658 </i>
   </energy>
  </scstep>
  <scstep>
   <time name="dav">   11.56   11.57</time>
   <time name="total">   11.90   11.90</time>
   <energy>
    <i name="e_fr_energy">   -101.89342048 </i>
    <i name="e_wo_entrp">   -101.88635162 </i>
    <i name="e_0_energy">   -101.89106419 </i>
   </energy>
  </scstep>
  <scstep>
   <time name="dav">   13.08   13.08</time>
   <time name="total">   13.42   13.43</time>
   <energy>
    <i name="e_fr_energy">    -97.30062001 </i>
    <i name="e_wo_entrp">    -97.27707224 </i>
    <i name="e_0_energy">    -97.29277075 </i>
   </energy>
  </scstep>
  <scstep>
   <time name="dav">   10.83   10.83</time>
   <time name="total">   11.17   11.17</time>
   <energy>
    <i name="e_fr_energy">    -97.04690797 </i>
    <i name="e_wo_entrp">    -97.04493496 </i>
    <i name="e_0_energy">    -97.04625030 </i>
   </energy>
  </scstep>
  <scstep>
   <time name="dav">   13.10   13.10</time>
   <time name="total">   13.44   13.45</time>
   <energy>
    <i name="e_fr_energy">    -96.49497385 </i>
    <i name="e_wo_entrp">    -96.47866199 </i>
    <i name="e_0_energy">    -96.48953656 </i>
   </energy>
  </scstep>
  <scstep>
   <time name="dav">   11.65   11.65</time>
   <time name="total">   11.99   11.99</time>
   <energy>
    <i name="e_fr_energy">    -96.33293733 </i>
    <i name="e_wo_entrp">    -96.32187699 </i>
    <i name="e_0_energy">    -96.32925055 </i>
   </energy>
  </scstep>
  <scstep>
   <time name="dav">   11.29   11.30</time>
   <time name="total">   11.63   11.63</time>
   <energy>
    <i name="e_fr_energy">    -96.30828354 </i>
    <i name="e_wo_entrp">    -96.29410414 </i>
    <i name="e_0_energy">    -96.30355707 </i>
   </energy>
  </scstep>
  <scstep>
   <time name="dav">   12.28   12.28</time>
   <time name="total">   12.62   12.63</time>
   <energy>
    <i name="e_fr_energy">    -96.28476105 </i>
    <i name="e_wo_entrp">    -96.26723383 </i>
    <i name="e_0_energy">    -96.27891864 </i>
   </energy>
  </scstep>
  <scstep>
   <time name="dav">   10.89   10.89</time>
   <time name="total">   11.23   11.23</time>
   <energy>
    <i name="e_fr_energy">    -96.27887445 </i>
    <i name="e_wo_entrp">    -96.25946486 </i>
    <i name="e_0_energy">    -96.27240459 </i>
   </energy>
  </scstep>
  <scstep>
   <time name="dav">   11.09   11.09</time>
   <time name="total">   11.43   11.44</time>
   <energy>
    <i name="e_fr_energy">    -96.27381289 </i>
    <i name="e_wo_entrp">    -96.25718794 </i>
    <i name="e_0_energy">    -96.26827124 </i>
   </energy>
  </scstep>
  <scstep>
   <time name="dav">   11.71   11.71</time>
   <time name="total">   12.05   12.05</time>
   <energy>
    <i name="e_fr_energy">    -96.27287915 </i>
    <i name="e_wo_entrp">    -96.25522688 </i>
    <i name="e_0_energy">    -96.26699506 </i>
   </energy>
  </scstep>
  <scstep>
   <time name="dav">   10.82   10.83</time>
   <time name="total">   11.16   11.17</time>
   <energy>
    <i name="e_fr_energy">    -96.27250526 </i>
    <i name="e_wo_entrp">    -96.25505117 </i>
    <i name="e_0_energy">    -96.26668723 </i>
   </energy>
  </scstep>
  <scstep>
   <time name="dav">   11.20   11.20</time>
   <time name="total">   11.54   11.54</time>
   <energy>
    <i name="e_fr_energy">    -96.27216920 </i>
    <i name="e_wo_entrp">    -96.25471474 </i>
    <i name="e_0_energy">    -96.26635105 </i>
   </energy>
  </scstep>
  <scstep>
   <time name="dav">   10.50   10.50</time>
   <time name="total">   10.84   10.85</time>
   <energy>
    <i name="e_fr_energy">    -96.27207661 </i>
    <i name="e_wo_entrp">    -96.25455882 </i>
    <i name="e_0_energy">    -96.26623735 </i>
   </energy>
  </scstep>
  <scstep>
   <time name="dav">   10.54   10.54</time>
   <time name="total">   10.88   10.88</time>
   <energy>
    <i name="e_fr_energy">    -96.27202524 </i>
    <i name="e_wo_entrp">    -96.25452576 </i>
    <i name="e_0_energy">    -96.26619208 </i>
   </energy>
  </scstep>
  <scstep>
   <time name="dav">    8.64    8.64</time>
   <time name="total">    8.98    8.99</time>
   <energy>
    <i name="e_fr_energy">    -96.27204199 </i>
    <i name="e_wo_entrp">    -96.25447989 </i>
    <i name="e_0_energy">    -96.26618796 </i>
   </energy>
  </scstep>
  <scstep>
   <time name="dav">    7.82    7.83</time>
   <time name="total">    8.16    8.17</time>
   <energy>
    <i name="e_fr_energy">    -96.27207746 </i>
    <i name="e_wo_entrp">    -96.25448275 </i>
    <i name="e_0_energy">    -96.26621256 </i>
   </energy>
  </scstep>
  <scstep>
   <time name="dav">    9.80    9.80</time>
   <time name="total">   10.14   10.15</time>
   <energy>
    <i name="e_fr_energy">    -96.27216785 </i>
    <i name="e_wo_entrp">    -96.25446378 </i>
    <i name="e_0_energy">    -96.26626649 </i>
   </energy>
  </scstep>
  <scstep>
   <time name="dav">    8.11    8.11</time>
   <time name="total">    8.45    8.46</time>
   <energy>
    <i name="e_fr_energy">    -96.27222413 </i>
    <i name="e_wo_entrp">    -96.25458887 </i>
    <i name="e_0_energy">    -96.26634571 </i>
   </energy>
  </scstep>
  <scstep>
   <time name="dav">    7.79    7.79</time>
   <time name="total">    8.13    8.13</time>
   <energy>
    <i name="e_fr_energy">    -96.27226159 </i>
    <i name="e_wo_entrp">    -96.25460582 </i>
    <i name="e_0_energy">    -96.26637634 </i>
   </energy>
  </scstep>
  <scstep>
   <time name="dav">    7.84    7.85</time>
   <time name="total">    8.19    8.19</time>
   <energy>
    <i name="e_fr_energy">    -96.27233288 </i>
    <i name="e_wo_entrp">    -96.25468783 </i>
    <i name="e_0_energy">    -96.26645120 </i>
   </energy>
  </scstep>
  <scstep>
   <time name="dav">    7.87    7.87</time>
   <time name="total">    8.21    8.21</time>
   <energy>
    <i name="e_fr_energy">    -96.27236980 </i>
    <i name="e_wo_entrp">    -96.25473164 </i>
    <i name="e_0_energy">    -96.26649041 </i>
   </energy>
  </scstep>
  <scstep>
   <time name="dav">    7.68    7.68</time>
   <time name="total">    8.02    8.02</time>
   <energy>
    <i name="e_fr_energy">    -96.27239054 </i>
    <i name="e_wo_entrp">    -96.25474360 </i>
    <i name="e_0_energy">    -96.26650823 </i>
   </energy>
  </scstep>
  <scstep>
   <time name="dav">    7.70    7.70</time>
   <time name="total">    8.04    8.04</time>
   <energy>
    <i name="e_fr_energy">    -96.27241535 </i>
    <i name="e_wo_entrp">    -96.25478003 </i>
    <i name="e_0_energy">    -96.26653691 </i>
   </energy>
  </scstep>
  <scstep>
   <time name="dav">    7.55    7.55</time>
   <time name="total">    7.57    7.58</time>
   <energy>
    <i name="alphaZ">    305.89839443 </i>
    <i name="ewald">  98129.21404172 </i>
    <i name="hartreedc">-110061.82410803 </i>
    <i name="XCdc">     43.42438590 </i>
    <i name="pawpsdc">  14207.21007478 </i>
    <i name="pawaedc"> -13792.74451397 </i>
    <i name="eentropy">     -0.01763889 </i>
    <i name="bandstr">   -633.59540435 </i>
    <i name="atom">  11706.16234457 </i>
    <i name="e_fr_energy">    -96.27242384 </i>
    <i name="e_wo_entrp">    -96.25478495 </i>
    <i name="e_0_energy">    -96.26654421 </i>
   </energy>
  </scstep>
  <dipole>
   <v name="dipole">      0.00000000       0.00000000      -0.02785021 </v>
   <i name="Tr[quadrupol]">   -945.70177176 </i>
   <i name="Echarged">      0.00000000 </i>
   <i name="Edipol_quadrupol">      0.00000000 </i>
   <i name="Eion">      0.00000000 </i>
  </dipole>
  <structure>
   <crystal>
    <varray name="basis" >
     <v>       5.55785930       0.00000000       0.00000000 </v>
     <v>       2.77892965       4.81324734       0.00000000 </v>
     <v>       0.00000000       0.00000000      30.80695967 </v>
    </varray>
    <i name="volume">    824.12780743 </i>
    <varray name="rec_basis" >
     <v>       0.17992539      -0.10387997       0.00000000 </v>
     <v>       0.00000000       0.20775994       0.00000000 </v>
     <v>       0.00000000       0.00000000       0.03246020 </v>
    </varray>
   </crystal>
   <varray name="positions" >
    <v>       0.00000000       0.00000000       0.38952237 </v>
    <v>       0.50000000       0.00000000       0.38952237 </v>
    <v>       0.00000000       0.50000000       0.38952237 </v>
    <v>       0.50000000       0.50000000       0.38952237 </v>
    <v>       0.16652883       0.16652883       0.46542487 </v>
    <v>       0.66694234       0.16652883       0.46542487 </v>
    <v>       0.16652883       0.66694234       0.46542487 </v>
    <v>       0.66666667       0.66666667       0.46426737 </v>
    <v>       0.83396869       0.33206261       0.54005199 </v>
    <v>       0.33333333       0.33333333       0.53994492 </v>
    <v>       0.83396869       0.83396869       0.54005199 </v>
    <v>       0.00000000       0.00000000       0.61904352 </v>
    <v>       0.50048728       0.99902544       0.61498914 </v>
    <v>       0.99902544       0.50048728       0.61498914 </v>
    <v>       0.50048728       0.50048728       0.61498914 </v>
    <v>       0.33206261       0.83396869       0.54005199 </v>
    <v>       0.00000000       0.00000000       0.66953436 </v>
   </varray>
  </structure>
  <varray name="forces" >
   <v>      -0.00345732       0.00199608      -1.02429842 </v>
   <v>       0.00225113       0.12504513       0.07714115 </v>
   <v>       0.10370133      -0.05987199       0.18334660 </v>
   <v>      -0.10716669      -0.06447210       0.07714115 </v>
   <v>       0.12920957      -0.06132064       0.44668143 </v>
   <v>      -0.13444632       0.07762262       0.13137409 </v>
   <v>       0.11771002      -0.08123846       0.44668143 </v>
   <v>      -0.08120330       0.04688275       0.08243566 </v>
   <v>       0.05068467       0.01747360       0.04593405 </v>
   <v>      -0.02404682       0.01388344       0.20670092 </v>
   <v>       0.01020976      -0.05263102       0.04593405 </v>
   <v>      -0.02000133       0.01154777      -0.21299602 </v>
   <v>      -0.12948858      -0.11242569      -0.23513746 </v>
   <v>      -0.01945997       0.01123522       0.06967260 </v>
   <v>       0.03261922       0.16835324      -0.23513746 </v>
   <v>       0.07560189      -0.04364877      -0.17552029 </v>
   <v>      -0.00271725       0.00156880       0.07004652 </v>
  </varray>
  <varray name="stress" >
   <v>     -22.19343865      -0.31781631      -0.72923154 </v>
   <v>      -0.31781631     -22.56042131       0.42102203 </v>
   <v>      -0.72923125       0.42102186      -3.57662736 </v>
  </varray>
  <energy>
   <i name="e_fr_energy">    -96.27233869 </i>
   <i name="e_wo_entrp">    -96.26645906 </i>
   <i name="e_0_energy">     -0.01763889 </i>
  </energy>
  <time name="totalsc">  371.75  371.89</time>
  <eigenvalues>
   <array>
    <dimension dim="1">band</dimension>
    <dimension dim="2">kpoint</dimension>
    <dimension dim="3">spin</dimension>
    <field>eigene</field>
    <field>occ</field>
    <set>
     <set comment="spin 1">
      <set comment="kpoint 1">
       <r>  -10.0608    1.0000 </r>
       <r>   -8.8343    1.0000 </r>
       <r>   -7.7675    1.0000 </r>
       <r>   -7.6186    1.0000 </r>
       <r>   -7.3291    1.0000 </r>
       <r>   -7.2999    1.0000 </r>
       <r>   -7.2930    1.0000 </r>
       <r>   -7.1684    1.0000 </r>
       <r>   -7.1432    1.0000 </r>
       <r>   -7.1352    1.0000 </r>
       <r>   -6.7618    1.0000 </r>
       <r>   -6.6938    1.0000 </r>
       <r>   -6.6794    1.0000 </r>
       <r>   -6.6552    1.0000 </r>
       <r>   -6.6476    1.0000 </r>
       <r>   -6.5085    1.0000 </r>
       <r>   -6.4764    1.0000 </r>
       <r>   -6.4655    1.0000 </r>
       <r>   -6.4175    1.0000 </r>
       <r>   -5.9232    1.0000 </r>
       <r>   -5.7023    1.0000 </r>
       <r>   -5.6814    1.0000 </r>
       <r>   -5.4309    1.0000 </r>
       <r>   -4.8614    1.0000 </r>
       <r>   -4.8386    1.0000 </r>
       <r>   -4.7103    1.0000 </r>
       <r>   -4.5981    1.0000 </r>
       <r>   -4.5816    1.0000 </r>
       <r>   -4.5154    1.0000 </r>
       <r>   -4.4588    1.0000 </r>
       <r>   -4.3062    1.0000 </r>
       <r>   -4.1948    1.0000 </r>
       <r>   -4.1549    1.0000 </r>
       <r>   -4.0482    1.0000 </r>
       <r>   -4.0289    1.0000 </r>
       <r>   -3.9204    1.0000 </r>
       <r>   -3.8774    1.0000 </r>
       <r>   -3.8664    1.0000 </r>
       <r>   -3.7960    1.0000 </r>
       <r>   -3.7681    1.0000 </r>
       <r>   -3.7315    1.0000 </r>
       <r>   -3.6939    1.0000 </r>
       <r>   -3.4171    1.0000 </r>
       <r>   -3.4044    1.0000 </r>
       <r>   -3.3759    1.0000 </r>
       <r>   -3.3173    1.0000 </r>
       <r>   -3.0250    1.0000 </r>
       <r>   -2.9601    1.0000 </r>
       <r>   -2.8380    1.0000 </r>
       <r>   -2.7861    1.0000 </r>
       <r>   -2.6459    1.0000 </r>
       <r>   -2.3368    1.0000 </r>
       <r>   -2.2074    1.0000 </r>
       <r>   -2.1943    1.0000 </r>
       <r>   -2.0978    1.0000 </r>
       <r>   -2.0583    1.0000 </r>
       <r>   -1.7831    1.0000 </r>
       <r>   -1.6991    1.0000 </r>
       <r>   -1.6466    1.0000 </r>
       <r>   -1.5872    1.0000 </r>
       <r>   -1.4951    1.0000 </r>
       <r>   -1.4789    1.0000 </r>
       <r>   -1.4178    1.0000 </r>
       <r>   -1.3207    1.0000 </r>
       <r>   -1.1387    1.0036 </r>
       <r>   -1.0251    1.0205 </r>
       <r>   -0.9730    1.0319 </r>
       <r>   -0.9550    1.0346 </r>
       <r>   -0.8887    1.0222 </r>
       <r>   -0.8531    0.9890 </r>
       <r>   -0.7552    0.7461 </r>
       <r>   -0.7258    0.6331 </r>
       <r>   -0.6913    0.4890 </r>
       <r>   -0.6402    0.2815 </r>
       <r>   -0.5966    0.1374 </r>
       <r>   -0.5166   -0.0090 </r>
       <r>   -0.4686   -0.0338 </r>
       <r>   -0.4344   -0.0347 </r>
       <r>   -0.3535   -0.0184 </r>
       <r>   -0.3262   -0.0130 </r>
       <r>   -0.2481   -0.0036 </r>
       <r>   -0.1727   -0.0007 </r>
       <r>   -0.1091   -0.0001 </r>
       <r>   -0.0724   -0.0001 </r>
       <r>   -0.0508   -0.0000 </r>
       <r>    0.0071   -0.0000 </r>
       <r>    0.3514   -0.0000 </r>
       <r>    0.4778   -0.0000 </r>
       <r>    1.2963   -0.0000 </r>
       <r>    1.4771   -0.0000 </r>
       <r>    1.6995   -0.0000 </r>
       <r>    1.7422   -0.0000 </r>
       <r>    1.7537   -0.0000 </r>
       <r>    1.9008   -0.0000 </r>
       <r>    2.4965   -0.0000 </r>
       <r>    2.7157   -0.0000 </r>
      </set>
      <set comment="kpoint 2">
       <r>  -10.0609    1.0000 </r>
       <r>   -8.8343    1.0000 </r>
       <r>   -7.7675    1.0000 </r>
       <r>   -7.6187    1.0000 </r>
       <r>   -7.3249    1.0000 </r>
       <r>   -7.3117    1.0000 </r>
       <r>   -7.2854    1.0000 </r>
       <r>   -7.1670    1.0000 </r>
       <r>   -7.1494    1.0000 </r>
       <r>   -7.1306    1.0000 </r>
       <r>   -6.7618    1.0000 </r>
       <r>   -6.6980    1.0000 </r>
       <r>   -6.6737    1.0000 </r>
       <r>   -6.6590    1.0000 </r>
       <r>   -6.6446    1.0000 </r>
       <r>   -6.5095    1.0000 </r>
       <r>   -6.4812    1.0000 </r>
       <r>   -6.4589    1.0000 </r>
       <r>   -6.4185    1.0000 </r>
       <r>   -5.9233    1.0000 </r>
       <r>   -5.7004    1.0000 </r>
       <r>   -5.6831    1.0000 </r>
       <r>   -5.4314    1.0000 </r>
       <r>   -4.8550    1.0000 </r>
       <r>   -4.8452    1.0000 </r>
       <r>   -4.7100    1.0000 </r>
       <r>   -4.5958    1.0000 </r>
       <r>   -4.5864    1.0000 </r>
       <r>   -4.5126    1.0000 </r>
       <r>   -4.4587    1.0000 </r>
       <r>   -4.3057    1.0000 </r>
       <r>   -4.2012    1.0000 </r>
       <r>   -4.1496    1.0000 </r>
       <r>   -4.0424    1.0000 </r>
       <r>   -4.0341    1.0000 </r>
       <r>   -3.9134    1.0000 </r>
       <r>   -3.8858    1.0000 </r>
       <r>   -3.8681    1.0000 </r>
       <r>   -3.7886    1.0000 </r>
       <r>   -3.7725    1.0000 </r>
       <r>   -3.7353    1.0000 </r>
       <r>   -3.6918    1.0000 </r>
       <r>   -3.4154    1.0000 </r>
       <r>   -3.4033    1.0000 </r>
       <r>   -3.3776    1.0000 </r>
       <r>   -3.3165    1.0000 </r>
       <r>   -3.0386    1.0000 </r>
       <r>   -2.9555    1.0000 </r>
       <r>   -2.8506    1.0000 </r>
       <r>   -2.7355    1.0000 </r>
       <r>   -2.6749    1.0000 </r>
       <r>   -2.3335    1.0000 </r>
       <r>   -2.2045    1.0000 </r>
       <r>   -2.1934    1.0000 </r>
       <r>   -2.0994    1.0000 </r>
       <r>   -2.0542    1.0000 </r>
       <r>   -1.7682    1.0000 </r>
       <r>   -1.7459    1.0000 </r>
       <r>   -1.6072    1.0000 </r>
       <r>   -1.5866    1.0000 </r>
       <r>   -1.5016    1.0000 </r>
       <r>   -1.4840    1.0000 </r>
       <r>   -1.3972    1.0000 </r>
       <r>   -1.3753    1.0000 </r>
       <r>   -1.1168    1.0054 </r>
       <r>   -1.0388    1.0175 </r>
       <r>   -0.9658    1.0332 </r>
       <r>   -0.9300    1.0351 </r>
       <r>   -0.9033    1.0293 </r>
       <r>   -0.8045    0.8978 </r>
       <r>   -0.7969    0.8781 </r>
       <r>   -0.7107    0.5707 </r>
       <r>   -0.7050    0.5467 </r>
       <r>   -0.6361    0.2663 </r>
       <r>   -0.5854    0.1074 </r>
       <r>   -0.5201   -0.0057 </r>
       <r>   -0.4956   -0.0243 </r>
       <r>   -0.4247   -0.0335 </r>
       <r>   -0.3684   -0.0218 </r>
       <r>   -0.2937   -0.0080 </r>
       <r>   -0.2578   -0.0043 </r>
       <r>   -0.1811   -0.0009 </r>
       <r>   -0.1037   -0.0001 </r>
       <r>   -0.0907   -0.0001 </r>
       <r>   -0.0521   -0.0000 </r>
       <r>    0.0117   -0.0000 </r>
       <r>    0.3853   -0.0000 </r>
       <r>    0.4514   -0.0000 </r>
       <r>    1.2959   -0.0000 </r>
       <r>    1.4814   -0.0000 </r>
       <r>    1.7089   -0.0000 </r>
       <r>    1.7093   -0.0000 </r>
       <r>    1.8177   -0.0000 </r>
       <r>    1.8528   -0.0000 </r>
       <r>    2.5425   -0.0000 </r>
       <r>    2.6889   -0.0000 </r>
      </set>
      <set comment="kpoint 3">
       <r>   -9.8569    1.0000 </r>
       <r>   -8.6350    1.0000 </r>
       <r>   -7.5631    1.0000 </r>
       <r>   -7.4247    1.0000 </r>
       <r>   -7.3072    1.0000 </r>
       <r>   -7.2297    1.0000 </r>
       <r>   -7.1123    1.0000 </r>
       <r>   -7.0821    1.0000 </r>
       <r>   -7.0321    1.0000 </r>
       <r>   -6.9605    1.0000 </r>
       <r>   -6.6755    1.0000 </r>
       <r>   -6.6140    1.0000 </r>
       <r>   -6.5799    1.0000 </r>
       <r>   -6.5637    1.0000 </r>
       <r>   -6.5182    1.0000 </r>
       <r>   -6.3953    1.0000 </r>
       <r>   -6.3578    1.0000 </r>
       <r>   -6.2905    1.0000 </r>
       <r>   -6.2552    1.0000 </r>
       <r>   -5.8794    1.0000 </r>
       <r>   -5.6352    1.0000 </r>
       <r>   -5.6222    1.0000 </r>
       <r>   -5.3878    1.0000 </r>
       <r>   -4.8788    1.0000 </r>
       <r>   -4.8360    1.0000 </r>
       <r>   -4.7492    1.0000 </r>
       <r>   -4.5893    1.0000 </r>
       <r>   -4.5156    1.0000 </r>
       <r>   -4.4848    1.0000 </r>
       <r>   -4.4459    1.0000 </r>
       <r>   -4.3969    1.0000 </r>
       <r>   -4.3144    1.0000 </r>
       <r>   -4.0598    1.0000 </r>
       <r>   -4.0093    1.0000 </r>
       <r>   -4.0043    1.0000 </r>
       <r>   -3.9678    1.0000 </r>
       <r>   -3.8860    1.0000 </r>
       <r>   -3.8314    1.0000 </r>
       <r>   -3.8118    1.0000 </r>
       <r>   -3.7640    1.0000 </r>
       <r>   -3.7462    1.0000 </r>
       <r>   -3.5981    1.0000 </r>
       <r>   -3.5819    1.0000 </r>
       <r>   -3.5468    1.0000 </r>
       <r>   -3.5016    1.0000 </r>
       <r>   -3.4599    1.0000 </r>
       <r>   -3.2456    1.0000 </r>
       <r>   -3.1144    1.0000 </r>
       <r>   -2.8922    1.0000 </r>
       <r>   -2.7964    1.0000 </r>
       <r>   -2.6371    1.0000 </r>
       <r>   -2.6178    1.0000 </r>
       <r>   -2.3602    1.0000 </r>
       <r>   -2.3063    1.0000 </r>
       <r>   -2.2071    1.0000 </r>
       <r>   -2.1159    1.0000 </r>
       <r>   -2.0061    1.0000 </r>
       <r>   -1.8436    1.0000 </r>
       <r>   -1.8097    1.0000 </r>
       <r>   -1.7676    1.0000 </r>
       <r>   -1.7439    1.0000 </r>
       <r>   -1.6786    1.0000 </r>
       <r>   -1.6508    1.0000 </r>
       <r>   -1.5615    1.0000 </r>
       <r>   -1.5110    1.0000 </r>
       <r>   -1.4423    1.0000 </r>
       <r>   -1.3312    1.0000 </r>
       <r>   -1.1776    1.0017 </r>
       <r>   -1.0816    1.0097 </r>
       <r>   -1.0070    1.0247 </r>
       <r>   -0.9599    1.0340 </r>
       <r>   -0.9335    1.0353 </r>
       <r>   -0.8975    1.0269 </r>
       <r>   -0.8473    0.9810 </r>
       <r>   -0.7974    0.8796 </r>
       <r>   -0.7465    0.7143 </r>
       <r>   -0.6924    0.4936 </r>
       <r>   -0.6683    0.3923 </r>
       <r>   -0.6295    0.2425 </r>
       <r>   -0.5128   -0.0123 </r>
       <r>   -0.4606   -0.0349 </r>
       <r>   -0.4323   -0.0345 </r>
       <r>   -0.3546   -0.0187 </r>
       <r>   -0.3176   -0.0115 </r>
       <r>   -0.2380   -0.0029 </r>
       <r>    0.2693   -0.0000 </r>
       <r>    0.3382   -0.0000 </r>
       <r>    0.5916   -0.0000 </r>
       <r>    0.9192   -0.0000 </r>
       <r>    1.0937   -0.0000 </r>
       <r>    1.3689   -0.0000 </r>
       <r>    1.6036   -0.0000 </r>
       <r>    2.2490   -0.0000 </r>
       <r>    2.5321   -0.0000 </r>
       <r>    2.7760   -0.0000 </r>
       <r>    3.1448   -0.0000 </r>
      </set>
      <set comment="kpoint 4">
       <r>   -9.8567    1.0000 </r>
       <r>   -8.6348    1.0000 </r>
       <r>   -7.5630    1.0000 </r>
       <r>   -7.4247    1.0000 </r>
       <r>   -7.3070    1.0000 </r>
       <r>   -7.2269    1.0000 </r>
       <r>   -7.1150    1.0000 </r>
       <r>   -7.0809    1.0000 </r>
       <r>   -7.0287    1.0000 </r>
       <r>   -6.9625    1.0000 </r>
       <r>   -6.6754    1.0000 </r>
       <r>   -6.6103    1.0000 </r>
       <r>   -6.5736    1.0000 </r>
       <r>   -6.5698    1.0000 </r>
       <r>   -6.5247    1.0000 </r>
       <r>   -6.3921    1.0000 </r>
       <r>   -6.3581    1.0000 </r>
       <r>   -6.2917    1.0000 </r>
       <r>   -6.2582    1.0000 </r>
       <r>   -5.8778    1.0000 </r>
       <r>   -5.6455    1.0000 </r>
       <r>   -5.6132    1.0000 </r>
       <r>   -5.3836    1.0000 </r>
       <r>   -4.8926    1.0000 </r>
       <r>   -4.8182    1.0000 </r>
       <r>   -4.7500    1.0000 </r>
       <r>   -4.5863    1.0000 </r>
       <r>   -4.5287    1.0000 </r>
       <r>   -4.4837    1.0000 </r>
       <r>   -4.4342    1.0000 </r>
       <r>   -4.4090    1.0000 </r>
       <r>   -4.3010    1.0000 </r>
       <r>   -4.0671    1.0000 </r>
       <r>   -4.0135    1.0000 </r>
       <r>   -4.0106    1.0000 </r>
       <r>   -3.9497    1.0000 </r>
       <r>   -3.8984    1.0000 </r>
       <r>   -3.8501    1.0000 </r>
       <r>   -3.7949    1.0000 </r>
       <r>   -3.7497    1.0000 </r>
       <r>   -3.7391    1.0000 </r>
       <r>   -3.6159    1.0000 </r>
       <r>   -3.5782    1.0000 </r>
       <r>   -3.5483    1.0000 </r>
       <r>   -3.5095    1.0000 </r>
       <r>   -3.4438    1.0000 </r>
       <r>   -3.1992    1.0000 </r>
       <r>   -3.1453    1.0000 </r>
       <r>   -2.9062    1.0000 </r>
       <r>   -2.8466    1.0000 </r>
       <r>   -2.6451    1.0000 </r>
       <r>   -2.6005    1.0000 </r>
       <r>   -2.3491    1.0000 </r>
       <r>   -2.3083    1.0000 </r>
       <r>   -2.2300    1.0000 </r>
       <r>   -2.0993    1.0000 </r>
       <r>   -1.9922    1.0000 </r>
       <r>   -1.8633    1.0000 </r>
       <r>   -1.8154    1.0000 </r>
       <r>   -1.7725    1.0000 </r>
       <r>   -1.7069    1.0000 </r>
       <r>   -1.6837    1.0000 </r>
       <r>   -1.6494    1.0000 </r>
       <r>   -1.5685    1.0000 </r>
       <r>   -1.5187    1.0000 </r>
       <r>   -1.4161    1.0000 </r>
       <r>   -1.3465    1.0000 </r>
       <r>   -1.1665    1.0021 </r>
       <r>   -1.1010    1.0071 </r>
       <r>   -1.0243    1.0207 </r>
       <r>   -0.9732    1.0319 </r>
       <r>   -0.9147    1.0328 </r>
       <r>   -0.8791    1.0156 </r>
       <r>   -0.8481    0.9821 </r>
       <r>   -0.7716    0.8029 </r>
       <r>   -0.7549    0.7453 </r>
       <r>   -0.7121    0.5767 </r>
       <r>   -0.6600    0.3589 </r>
       <r>   -0.5980    0.1414 </r>
       <r>   -0.5342    0.0103 </r>
       <r>   -0.4766   -0.0320 </r>
       <r>   -0.4430   -0.0353 </r>
       <r>   -0.3659   -0.0212 </r>
       <r>   -0.2746   -0.0058 </r>
       <r>   -0.2157   -0.0019 </r>
       <r>    0.2780   -0.0000 </r>
       <r>    0.3131   -0.0000 </r>
       <r>    0.5853   -0.0000 </r>
       <r>    0.9190   -0.0000 </r>
       <r>    1.0789   -0.0000 </r>
       <r>    1.3674   -0.0000 </r>
       <r>    1.5994   -0.0000 </r>
       <r>    2.2580   -0.0000 </r>
       <r>    2.5246   -0.0000 </r>
       <r>    2.7707   -0.0000 </r>
       <r>    3.1432   -0.0000 </r>
      </set>
      <set comment="kpoint 5">
       <r>   -9.8568    1.0000 </r>
       <r>   -8.6349    1.0000 </r>
       <r>   -7.5631    1.0000 </r>
       <r>   -7.4248    1.0000 </r>
       <r>   -7.3066    1.0000 </r>
       <r>   -7.2289    1.0000 </r>
       <r>   -7.1137    1.0000 </r>
       <r>   -7.0810    1.0000 </r>
       <r>   -7.0312    1.0000 </r>
       <r>   -6.9616    1.0000 </r>
       <r>   -6.6753    1.0000 </r>
       <r>   -6.6129    1.0000 </r>
       <r>   -6.5795    1.0000 </r>
       <r>   -6.5620    1.0000 </r>
       <r>   -6.5231    1.0000 </r>
       <r>   -6.3915    1.0000 </r>
       <r>   -6.3595    1.0000 </r>
       <r>   -6.2943    1.0000 </r>
       <r>   -6.2534    1.0000 </r>
       <r>   -5.8788    1.0000 </r>
       <r>   -5.6423    1.0000 </r>
       <r>   -5.6156    1.0000 </r>
       <r>   -5.3861    1.0000 </r>
       <r>   -4.8840    1.0000 </r>
       <r>   -4.8307    1.0000 </r>
       <r>   -4.7481    1.0000 </r>
       <r>   -4.5858    1.0000 </r>
       <r>   -4.5208    1.0000 </r>
       <r>   -4.4880    1.0000 </r>
       <r>   -4.4429    1.0000 </r>
       <r>   -4.3967    1.0000 </r>
       <r>   -4.3115    1.0000 </r>
       <r>   -4.0666    1.0000 </r>
       <r>   -4.0108    1.0000 </r>
       <r>   -4.0059    1.0000 </r>
       <r>   -3.9517    1.0000 </r>
       <r>   -3.8894    1.0000 </r>
       <r>   -3.8500    1.0000 </r>
       <r>   -3.8131    1.0000 </r>
       <r>   -3.7493    1.0000 </r>
       <r>   -3.7418    1.0000 </r>
       <r>   -3.6026    1.0000 </r>
       <r>   -3.5799    1.0000 </r>
       <r>   -3.5438    1.0000 </r>
       <r>   -3.5141    1.0000 </r>
       <r>   -3.4503    1.0000 </r>
       <r>   -3.2273    1.0000 </r>
       <r>   -3.1248    1.0000 </r>
       <r>   -2.8951    1.0000 </r>
       <r>   -2.8225    1.0000 </r>
       <r>   -2.6375    1.0000 </r>
       <r>   -2.6102    1.0000 </r>
       <r>   -2.3465    1.0000 </r>
       <r>   -2.3225    1.0000 </r>
       <r>   -2.2118    1.0000 </r>
       <r>   -2.1082    1.0000 </r>
       <r>   -2.0034    1.0000 </r>
       <r>   -1.8437    1.0000 </r>
       <r>   -1.8048    1.0000 </r>
       <r>   -1.7822    1.0000 </r>
       <r>   -1.7397    1.0000 </r>
       <r>   -1.7039    1.0000 </r>
       <r>   -1.6201    1.0000 </r>
       <r>   -1.5699    1.0000 </r>
       <r>   -1.5005    1.0000 </r>
       <r>   -1.4202    1.0000 </r>
       <r>   -1.3427    1.0000 </r>
       <r>   -1.1755    1.0017 </r>
       <r>   -1.0789    1.0101 </r>
       <r>   -1.0295    1.0195 </r>
       <r>   -0.9596    1.0340 </r>
       <r>   -0.9427    1.0354 </r>
       <r>   -0.8785    1.0152 </r>
       <r>   -0.8343    0.9605 </r>
       <r>   -0.7958    0.8752 </r>
       <r>   -0.7321    0.6581 </r>
       <r>   -0.7219    0.6171 </r>
       <r>   -0.6600    0.3586 </r>
       <r>   -0.6234    0.2212 </r>
       <r>   -0.5406    0.0190 </r>
       <r>   -0.4805   -0.0308 </r>
       <r>   -0.4456   -0.0354 </r>
       <r>   -0.3685   -0.0218 </r>
       <r>   -0.2657   -0.0049 </r>
       <r>   -0.2138   -0.0018 </r>
       <r>    0.2833   -0.0000 </r>
       <r>    0.3171   -0.0000 </r>
       <r>    0.5921   -0.0000 </r>
       <r>    0.9193   -0.0000 </r>
       <r>    1.0850   -0.0000 </r>
       <r>    1.3648   -0.0000 </r>
       <r>    1.6037   -0.0000 </r>
       <r>    2.2542   -0.0000 </r>
       <r>    2.5208   -0.0000 </r>
       <r>    2.7780   -0.0000 </r>
       <r>    3.1542   -0.0000 </r>
      </set>
      <set comment="kpoint 6">
       <r>   -9.4033    1.0000 </r>
       <r>   -8.2048    1.0000 </r>
       <r>   -7.4073    1.0000 </r>
       <r>   -7.1339    1.0000 </r>
       <r>   -7.0145    1.0000 </r>
       <r>   -7.0012    1.0000 </r>
       <r>   -6.9583    1.0000 </r>
       <r>   -6.7799    1.0000 </r>
       <r>   -6.7347    1.0000 </r>
       <r>   -6.6522    1.0000 </r>
       <r>   -6.5745    1.0000 </r>
       <r>   -6.4503    1.0000 </r>
       <r>   -6.3490    1.0000 </r>
       <r>   -6.3191    1.0000 </r>
       <r>   -6.2254    1.0000 </r>
       <r>   -6.1873    1.0000 </r>
       <r>   -6.0429    1.0000 </r>
       <r>   -5.9607    1.0000 </r>
       <r>   -5.8957    1.0000 </r>
       <r>   -5.7192    1.0000 </r>
       <r>   -5.5017    1.0000 </r>
       <r>   -5.4831    1.0000 </r>
       <r>   -5.3029    1.0000 </r>
       <r>   -4.9856    1.0000 </r>
       <r>   -4.9165    1.0000 </r>
       <r>   -4.8132    1.0000 </r>
       <r>   -4.7236    1.0000 </r>
       <r>   -4.6381    1.0000 </r>
       <r>   -4.5926    1.0000 </r>
       <r>   -4.3893    1.0000 </r>
       <r>   -4.3610    1.0000 </r>
       <r>   -4.2793    1.0000 </r>
       <r>   -4.1831    1.0000 </r>
       <r>   -4.1620    1.0000 </r>
       <r>   -4.1201    1.0000 </r>
       <r>   -3.9707    1.0000 </r>
       <r>   -3.9432    1.0000 </r>
       <r>   -3.8991    1.0000 </r>
       <r>   -3.8174    1.0000 </r>
       <r>   -3.8069    1.0000 </r>
       <r>   -3.7409    1.0000 </r>
       <r>   -3.6883    1.0000 </r>
       <r>   -3.6575    1.0000 </r>
       <r>   -3.6306    1.0000 </r>
       <r>   -3.5660    1.0000 </r>
       <r>   -3.4922    1.0000 </r>
       <r>   -3.3843    1.0000 </r>
       <r>   -3.2236    1.0000 </r>
       <r>   -3.0840    1.0000 </r>
       <r>   -2.9703    1.0000 </r>
       <r>   -2.9162    1.0000 </r>
       <r>   -2.8000    1.0000 </r>
       <r>   -2.7127    1.0000 </r>
       <r>   -2.6705    1.0000 </r>
       <r>   -2.6183    1.0000 </r>
       <r>   -2.5407    1.0000 </r>
       <r>   -2.5114    1.0000 </r>
       <r>   -2.4759    1.0000 </r>
       <r>   -2.3910    1.0000 </r>
       <r>   -2.3250    1.0000 </r>
       <r>   -2.2337    1.0000 </r>
       <r>   -2.1046    1.0000 </r>
       <r>   -2.0160    1.0000 </r>
       <r>   -1.9552    1.0000 </r>
       <r>   -1.8566    1.0000 </r>
       <r>   -1.7871    1.0000 </r>
       <r>   -1.6984    1.0000 </r>
       <r>   -1.5862    1.0000 </r>
       <r>   -1.5329    1.0000 </r>
       <r>   -1.4525    1.0000 </r>
       <r>   -1.4091    1.0000 </r>
       <r>   -1.3187    1.0000 </r>
       <r>   -1.2232    1.0006 </r>
       <r>   -1.1843    1.0014 </r>
       <r>   -1.1051    1.0067 </r>
       <r>   -1.0671    1.0120 </r>
       <r>   -0.9844    1.0297 </r>
       <r>   -0.9248    1.0346 </r>
       <r>   -0.8212    0.9356 </r>
       <r>   -0.7741    0.8109 </r>
       <r>   -0.7029    0.5381 </r>
       <r>   -0.6804    0.4430 </r>
       <r>   -0.5335    0.0094 </r>
       <r>   -0.4215   -0.0331 </r>
       <r>   -0.3747   -0.0232 </r>
       <r>   -0.0176   -0.0000 </r>
       <r>    0.3842   -0.0000 </r>
       <r>    0.6736   -0.0000 </r>
       <r>    0.9884   -0.0000 </r>
       <r>    1.4760   -0.0000 </r>
       <r>    1.8374   -0.0000 </r>
       <r>    1.9569   -0.0000 </r>
       <r>    2.3338   -0.0000 </r>
       <r>    2.5021   -0.0000 </r>
       <r>    3.2036   -0.0000 </r>
       <r>    3.5748   -0.0000 </r>
      </set>
      <set comment="kpoint 7">
       <r>   -9.4028    1.0000 </r>
       <r>   -8.2042    1.0000 </r>
       <r>   -7.4068    1.0000 </r>
       <r>   -7.1305    1.0000 </r>
       <r>   -7.0174    1.0000 </r>
       <r>   -6.9985    1.0000 </r>
       <r>   -6.9556    1.0000 </r>
       <r>   -6.7785    1.0000 </r>
       <r>   -6.7322    1.0000 </r>
       <r>   -6.6531    1.0000 </r>
       <r>   -6.5761    1.0000 </r>
       <r>   -6.4470    1.0000 </r>
       <r>   -6.3475    1.0000 </r>
       <r>   -6.3155    1.0000 </r>
       <r>   -6.2326    1.0000 </r>
       <r>   -6.1931    1.0000 </r>
       <r>   -6.0474    1.0000 </r>
       <r>   -5.9612    1.0000 </r>
       <r>   -5.9032    1.0000 </r>
       <r>   -5.7100    1.0000 </r>
       <r>   -5.5198    1.0000 </r>
       <r>   -5.4682    1.0000 </r>
       <r>   -5.2907    1.0000 </r>
       <r>   -4.9855    1.0000 </r>
       <r>   -4.9139    1.0000 </r>
       <r>   -4.8017    1.0000 </r>
       <r>   -4.7265    1.0000 </r>
       <r>   -4.6618    1.0000 </r>
       <r>   -4.5604    1.0000 </r>
       <r>   -4.3835    1.0000 </r>
       <r>   -4.3508    1.0000 </r>
       <r>   -4.2874    1.0000 </r>
       <r>   -4.2087    1.0000 </r>
       <r>   -4.1662    1.0000 </r>
       <r>   -4.1115    1.0000 </r>
       <r>   -3.9894    1.0000 </r>
       <r>   -3.9246    1.0000 </r>
       <r>   -3.9021    1.0000 </r>
       <r>   -3.8487    1.0000 </r>
       <r>   -3.7706    1.0000 </r>
       <r>   -3.7452    1.0000 </r>
       <r>   -3.6892    1.0000 </r>
       <r>   -3.6685    1.0000 </r>
       <r>   -3.6128    1.0000 </r>
       <r>   -3.5434    1.0000 </r>
       <r>   -3.4771    1.0000 </r>
       <r>   -3.3713    1.0000 </r>
       <r>   -3.2291    1.0000 </r>
       <r>   -3.1963    1.0000 </r>
       <r>   -2.9977    1.0000 </r>
       <r>   -2.9132    1.0000 </r>
       <r>   -2.7934    1.0000 </r>
       <r>   -2.6941    1.0000 </r>
       <r>   -2.6561    1.0000 </r>
       <r>   -2.6118    1.0000 </r>
       <r>   -2.5252    1.0000 </r>
       <r>   -2.5184    1.0000 </r>
       <r>   -2.4865    1.0000 </r>
       <r>   -2.4091    1.0000 </r>
       <r>   -2.3567    1.0000 </r>
       <r>   -2.2381    1.0000 </r>
       <r>   -2.0791    1.0000 </r>
       <r>   -2.0378    1.0000 </r>
       <r>   -1.9550    1.0000 </r>
       <r>   -1.8298    1.0000 </r>
       <r>   -1.8039    1.0000 </r>
       <r>   -1.7500    1.0000 </r>
       <r>   -1.5637    1.0000 </r>
       <r>   -1.4952    1.0000 </r>
       <r>   -1.4288    1.0000 </r>
       <r>   -1.3338    1.0000 </r>
       <r>   -1.2996    1.0001 </r>
       <r>   -1.2534    1.0003 </r>
       <r>   -1.1935    1.0012 </r>
       <r>   -1.1114    1.0060 </r>
       <r>   -1.0542    1.0144 </r>
       <r>   -0.9648    1.0333 </r>
       <r>   -0.9203    1.0339 </r>
       <r>   -0.8719    1.0096 </r>
       <r>   -0.7578    0.7554 </r>
       <r>   -0.7176    0.5995 </r>
       <r>   -0.6198    0.2089 </r>
       <r>   -0.5844    0.1049 </r>
       <r>   -0.5241   -0.0016 </r>
       <r>   -0.2596   -0.0044 </r>
       <r>   -0.0173   -0.0000 </r>
       <r>    0.3874   -0.0000 </r>
       <r>    0.6629   -0.0000 </r>
       <r>    0.9901   -0.0000 </r>
       <r>    1.4224   -0.0000 </r>
       <r>    1.8443   -0.0000 </r>
       <r>    1.9539   -0.0000 </r>
       <r>    2.3325   -0.0000 </r>
       <r>    2.5047   -0.0000 </r>
       <r>    3.2007   -0.0000 </r>
       <r>    3.6148   -0.0000 </r>
      </set>
      <set comment="kpoint 8">
       <r>   -9.4030    1.0000 </r>
       <r>   -8.2043    1.0000 </r>
       <r>   -7.4068    1.0000 </r>
       <r>   -7.1307    1.0000 </r>
       <r>   -7.0169    1.0000 </r>
       <r>   -6.9986    1.0000 </r>
       <r>   -6.9577    1.0000 </r>
       <r>   -6.7778    1.0000 </r>
       <r>   -6.7311    1.0000 </r>
       <r>   -6.6584    1.0000 </r>
       <r>   -6.5735    1.0000 </r>
       <r>   -6.4482    1.0000 </r>
       <r>   -6.3503    1.0000 </r>
       <r>   -6.3119    1.0000 </r>
       <r>   -6.2354    1.0000 </r>
       <r>   -6.1872    1.0000 </r>
       <r>   -6.0503    1.0000 </r>
       <r>   -5.9615    1.0000 </r>
       <r>   -5.8960    1.0000 </r>
       <r>   -5.7136    1.0000 </r>
       <r>   -5.5222    1.0000 </r>
       <r>   -5.4653    1.0000 </r>
       <r>   -5.2931    1.0000 </r>
       <r>   -4.9849    1.0000 </r>
       <r>   -4.9130    1.0000 </r>
       <r>   -4.8102    1.0000 </r>
       <r>   -4.7240    1.0000 </r>
       <r>   -4.6571    1.0000 </r>
       <r>   -4.5669    1.0000 </r>
       <r>   -4.3728    1.0000 </r>
       <r>   -4.3679    1.0000 </r>
       <r>   -4.2783    1.0000 </r>
       <r>   -4.1987    1.0000 </r>
       <r>   -4.1727    1.0000 </r>
       <r>   -4.1184    1.0000 </r>
       <r>   -3.9912    1.0000 </r>
       <r>   -3.9412    1.0000 </r>
       <r>   -3.9011    1.0000 </r>
       <r>   -3.8377    1.0000 </r>
       <r>   -3.7884    1.0000 </r>
       <r>   -3.7462    1.0000 </r>
       <r>   -3.6768    1.0000 </r>
       <r>   -3.6463    1.0000 </r>
       <r>   -3.5988    1.0000 </r>
       <r>   -3.5467    1.0000 </r>
       <r>   -3.4802    1.0000 </r>
       <r>   -3.4072    1.0000 </r>
       <r>   -3.2272    1.0000 </r>
       <r>   -3.1638    1.0000 </r>
       <r>   -2.9871    1.0000 </r>
       <r>   -2.9067    1.0000 </r>
       <r>   -2.7964    1.0000 </r>
       <r>   -2.7162    1.0000 </r>
       <r>   -2.6518    1.0000 </r>
       <r>   -2.5948    1.0000 </r>
       <r>   -2.5453    1.0000 </r>
       <r>   -2.5078    1.0000 </r>
       <r>   -2.4899    1.0000 </r>
       <r>   -2.3931    1.0000 </r>
       <r>   -2.3538    1.0000 </r>
       <r>   -2.2205    1.0000 </r>
       <r>   -2.1001    1.0000 </r>
       <r>   -2.0147    1.0000 </r>
       <r>   -1.9649    1.0000 </r>
       <r>   -1.8424    1.0000 </r>
       <r>   -1.7847    1.0000 </r>
       <r>   -1.7461    1.0000 </r>
       <r>   -1.5931    1.0000 </r>
       <r>   -1.4702    1.0000 </r>
       <r>   -1.4467    1.0000 </r>
       <r>   -1.4002    1.0000 </r>
       <r>   -1.3235    1.0000 </r>
       <r>   -1.2381    1.0004 </r>
       <r>   -1.1737    1.0018 </r>
       <r>   -1.0762    1.0105 </r>
       <r>   -1.0643    1.0125 </r>
       <r>   -0.9659    1.0331 </r>
       <r>   -0.9234    1.0344 </r>
       <r>   -0.8689    1.0068 </r>
       <r>   -0.7555    0.7474 </r>
       <r>   -0.6949    0.5040 </r>
       <r>   -0.6246    0.2254 </r>
       <r>   -0.6063    0.1658 </r>
       <r>   -0.5226   -0.0031 </r>
       <r>   -0.2669   -0.0050 </r>
       <r>   -0.0003   -0.0000 </r>
       <r>    0.3832   -0.0000 </r>
       <r>    0.6681   -0.0000 </r>
       <r>    0.9874   -0.0000 </r>
       <r>    1.4217   -0.0000 </r>
       <r>    1.8437   -0.0000 </r>
       <r>    1.9650   -0.0000 </r>
       <r>    2.3384   -0.0000 </r>
       <r>    2.4966   -0.0000 </r>
       <r>    3.2012   -0.0000 </r>
       <r>    3.6052   -0.0000 </r>
      </set>
      <set comment="kpoint 9">
       <r>   -8.7648    1.0000 </r>
       <r>   -7.7785    1.0000 </r>
       <r>   -7.6501    1.0000 </r>
       <r>   -7.0542    1.0000 </r>
       <r>   -6.6923    1.0000 </r>
       <r>   -6.6289    1.0000 </r>
       <r>   -6.5354    1.0000 </r>
       <r>   -6.4631    1.0000 </r>
       <r>   -6.4280    1.0000 </r>
       <r>   -6.3986    1.0000 </r>
       <r>   -6.3425    1.0000 </r>
       <r>   -6.1886    1.0000 </r>
       <r>   -6.0631    1.0000 </r>
       <r>   -5.9999    1.0000 </r>
       <r>   -5.9391    1.0000 </r>
       <r>   -5.8864    1.0000 </r>
       <r>   -5.7578    1.0000 </r>
       <r>   -5.6063    1.0000 </r>
       <r>   -5.5325    1.0000 </r>
       <r>   -5.4212    1.0000 </r>
       <r>   -5.2976    1.0000 </r>
       <r>   -5.2628    1.0000 </r>
       <r>   -5.2014    1.0000 </r>
       <r>   -5.1206    1.0000 </r>
       <r>   -5.0624    1.0000 </r>
       <r>   -4.9440    1.0000 </r>
       <r>   -4.8856    1.0000 </r>
       <r>   -4.8411    1.0000 </r>
       <r>   -4.6443    1.0000 </r>
       <r>   -4.6115    1.0000 </r>
       <r>   -4.5319    1.0000 </r>
       <r>   -4.4736    1.0000 </r>
       <r>   -4.3819    1.0000 </r>
       <r>   -4.3378    1.0000 </r>
       <r>   -4.2887    1.0000 </r>
       <r>   -4.1584    1.0000 </r>
       <r>   -4.0926    1.0000 </r>
       <r>   -4.0080    1.0000 </r>
       <r>   -3.9436    1.0000 </r>
       <r>   -3.8644    1.0000 </r>
       <r>   -3.7933    1.0000 </r>
       <r>   -3.7352    1.0000 </r>
       <r>   -3.7072    1.0000 </r>
       <r>   -3.6460    1.0000 </r>
       <r>   -3.5591    1.0000 </r>
       <r>   -3.5080    1.0000 </r>
       <r>   -3.4702    1.0000 </r>
       <r>   -3.4154    1.0000 </r>
       <r>   -3.3653    1.0000 </r>
       <r>   -3.3033    1.0000 </r>
       <r>   -3.2665    1.0000 </r>
       <r>   -3.1810    1.0000 </r>
       <r>   -3.1405    1.0000 </r>
       <r>   -3.1007    1.0000 </r>
       <r>   -2.9181    1.0000 </r>
       <r>   -2.8825    1.0000 </r>
       <r>   -2.8202    1.0000 </r>
       <r>   -2.7528    1.0000 </r>
       <r>   -2.7101    1.0000 </r>
       <r>   -2.6848    1.0000 </r>
       <r>   -2.4313    1.0000 </r>
       <r>   -2.4028    1.0000 </r>
       <r>   -2.2800    1.0000 </r>
       <r>   -2.2536    1.0000 </r>
       <r>   -2.1660    1.0000 </r>
       <r>   -2.0857    1.0000 </r>
       <r>   -2.0460    1.0000 </r>
       <r>   -1.9484    1.0000 </r>
       <r>   -1.8930    1.0000 </r>
       <r>   -1.8376    1.0000 </r>
       <r>   -1.7688    1.0000 </r>
       <r>   -1.6995    1.0000 </r>
       <r>   -1.6167    1.0000 </r>
       <r>   -1.5140    1.0000 </r>
       <r>   -1.3835    1.0000 </r>
       <r>   -1.3292    1.0000 </r>
       <r>   -1.2155    1.0007 </r>
       <r>   -1.0335    1.0186 </r>
       <r>   -0.9868    1.0292 </r>
       <r>   -0.7660    0.7843 </r>
       <r>   -0.7282    0.6426 </r>
       <r>   -0.7223    0.6188 </r>
       <r>   -0.5375    0.0147 </r>
       <r>   -0.4256   -0.0337 </r>
       <r>   -0.3459   -0.0168 </r>
       <r>   -0.2571   -0.0042 </r>
       <r>    0.6935   -0.0000 </r>
       <r>    0.8432   -0.0000 </r>
       <r>    1.0998   -0.0000 </r>
       <r>    1.6212   -0.0000 </r>
       <r>    1.9392   -0.0000 </r>
       <r>    2.1169   -0.0000 </r>
       <r>    2.4332   -0.0000 </r>
       <r>    2.7137   -0.0000 </r>
       <r>    3.4992   -0.0000 </r>
       <r>    3.7531   -0.0000 </r>
      </set>
      <set comment="kpoint 10">
       <r>   -8.7635    1.0000 </r>
       <r>   -7.7741    1.0000 </r>
       <r>   -7.6532    1.0000 </r>
       <r>   -7.0517    1.0000 </r>
       <r>   -6.6863    1.0000 </r>
       <r>   -6.6270    1.0000 </r>
       <r>   -6.5435    1.0000 </r>
       <r>   -6.4531    1.0000 </r>
       <r>   -6.4231    1.0000 </r>
       <r>   -6.3894    1.0000 </r>
       <r>   -6.3520    1.0000 </r>
       <r>   -6.1881    1.0000 </r>
       <r>   -6.0689    1.0000 </r>
       <r>   -6.0082    1.0000 </r>
       <r>   -5.9270    1.0000 </r>
       <r>   -5.8883    1.0000 </r>
       <r>   -5.7878    1.0000 </r>
       <r>   -5.5874    1.0000 </r>
       <r>   -5.5625    1.0000 </r>
       <r>   -5.4046    1.0000 </r>
       <r>   -5.3022    1.0000 </r>
       <r>   -5.2553    1.0000 </r>
       <r>   -5.2157    1.0000 </r>
       <r>   -5.0943    1.0000 </r>
       <r>   -5.0538    1.0000 </r>
       <r>   -4.9507    1.0000 </r>
       <r>   -4.8799    1.0000 </r>
       <r>   -4.8174    1.0000 </r>
       <r>   -4.6198    1.0000 </r>
       <r>   -4.5868    1.0000 </r>
       <r>   -4.5192    1.0000 </r>
       <r>   -4.4925    1.0000 </r>
       <r>   -4.3747    1.0000 </r>
       <r>   -4.3376    1.0000 </r>
       <r>   -4.2714    1.0000 </r>
       <r>   -4.1798    1.0000 </r>
       <r>   -4.1110    1.0000 </r>
       <r>   -4.0279    1.0000 </r>
       <r>   -3.9802    1.0000 </r>
       <r>   -3.8828    1.0000 </r>
       <r>   -3.7999    1.0000 </r>
       <r>   -3.7411    1.0000 </r>
       <r>   -3.6789    1.0000 </r>
       <r>   -3.6404    1.0000 </r>
       <r>   -3.5545    1.0000 </r>
       <r>   -3.5151    1.0000 </r>
       <r>   -3.4966    1.0000 </r>
       <r>   -3.4104    1.0000 </r>
       <r>   -3.3671    1.0000 </r>
       <r>   -3.3274    1.0000 </r>
       <r>   -3.2759    1.0000 </r>
       <r>   -3.1969    1.0000 </r>
       <r>   -3.1493    1.0000 </r>
       <r>   -3.1124    1.0000 </r>
       <r>   -2.9405    1.0000 </r>
       <r>   -2.8633    1.0000 </r>
       <r>   -2.8163    1.0000 </r>
       <r>   -2.7566    1.0000 </r>
       <r>   -2.7019    1.0000 </r>
       <r>   -2.6756    1.0000 </r>
       <r>   -2.4256    1.0000 </r>
       <r>   -2.4057    1.0000 </r>
       <r>   -2.3058    1.0000 </r>
       <r>   -2.2229    1.0000 </r>
       <r>   -2.1479    1.0000 </r>
       <r>   -2.1166    1.0000 </r>
       <r>   -2.0646    1.0000 </r>
       <r>   -1.9573    1.0000 </r>
       <r>   -1.8696    1.0000 </r>
       <r>   -1.8042    1.0000 </r>
       <r>   -1.7506    1.0000 </r>
       <r>   -1.7086    1.0000 </r>
       <r>   -1.6043    1.0000 </r>
       <r>   -1.4770    1.0000 </r>
       <r>   -1.3949    1.0000 </r>
       <r>   -1.3523    1.0000 </r>
       <r>   -1.1426    1.0034 </r>
       <r>   -1.0545    1.0143 </r>
       <r>   -0.9984    1.0267 </r>
       <r>   -0.8287    0.9504 </r>
       <r>   -0.7429    0.7004 </r>
       <r>   -0.6281    0.2373 </r>
       <r>   -0.5730    0.0779 </r>
       <r>   -0.5087   -0.0157 </r>
       <r>   -0.2924   -0.0078 </r>
       <r>   -0.1942   -0.0012 </r>
       <r>    0.6809   -0.0000 </r>
       <r>    0.8333   -0.0000 </r>
       <r>    1.1018   -0.0000 </r>
       <r>    1.5668   -0.0000 </r>
       <r>    1.9530   -0.0000 </r>
       <r>    2.1013   -0.0000 </r>
       <r>    2.4437   -0.0000 </r>
       <r>    2.7076   -0.0000 </r>
       <r>    3.4964   -0.0000 </r>
       <r>    3.8017   -0.0000 </r>
      </set>
      <set comment="kpoint 11">
       <r>   -8.7637    1.0000 </r>
       <r>   -7.7740    1.0000 </r>
       <r>   -7.6533    1.0000 </r>
       <r>   -7.0521    1.0000 </r>
       <r>   -6.6866    1.0000 </r>
       <r>   -6.6302    1.0000 </r>
       <r>   -6.5345    1.0000 </r>
       <r>   -6.4524    1.0000 </r>
       <r>   -6.4303    1.0000 </r>
       <r>   -6.3924    1.0000 </r>
       <r>   -6.3510    1.0000 </r>
       <r>   -6.1879    1.0000 </r>
       <r>   -6.0707    1.0000 </r>
       <r>   -6.0042    1.0000 </r>
       <r>   -5.9271    1.0000 </r>
       <r>   -5.8881    1.0000 </r>
       <r>   -5.7859    1.0000 </r>
       <r>   -5.5855    1.0000 </r>
       <r>   -5.5629    1.0000 </r>
       <r>   -5.4070    1.0000 </r>
       <r>   -5.3051    1.0000 </r>
       <r>   -5.2516    1.0000 </r>
       <r>   -5.2149    1.0000 </r>
       <r>   -5.0940    1.0000 </r>
       <r>   -5.0516    1.0000 </r>
       <r>   -4.9550    1.0000 </r>
       <r>   -4.8783    1.0000 </r>
       <r>   -4.8203    1.0000 </r>
       <r>   -4.6162    1.0000 </r>
       <r>   -4.6030    1.0000 </r>
       <r>   -4.5308    1.0000 </r>
       <r>   -4.4782    1.0000 </r>
       <r>   -4.3788    1.0000 </r>
       <r>   -4.3246    1.0000 </r>
       <r>   -4.2745    1.0000 </r>
       <r>   -4.1871    1.0000 </r>
       <r>   -4.1148    1.0000 </r>
       <r>   -4.0277    1.0000 </r>
       <r>   -3.9780    1.0000 </r>
       <r>   -3.8839    1.0000 </r>
       <r>   -3.7987    1.0000 </r>
       <r>   -3.7175    1.0000 </r>
       <r>   -3.7006    1.0000 </r>
       <r>   -3.6281    1.0000 </r>
       <r>   -3.5574    1.0000 </r>
       <r>   -3.5117    1.0000 </r>
       <r>   -3.4946    1.0000 </r>
       <r>   -3.4198    1.0000 </r>
       <r>   -3.3751    1.0000 </r>
       <r>   -3.3102    1.0000 </r>
       <r>   -3.2780    1.0000 </r>
       <r>   -3.2146    1.0000 </r>
       <r>   -3.1403    1.0000 </r>
       <r>   -3.0749    1.0000 </r>
       <r>   -2.9056    1.0000 </r>
       <r>   -2.8878    1.0000 </r>
       <r>   -2.8297    1.0000 </r>
       <r>   -2.7658    1.0000 </r>
       <r>   -2.6950    1.0000 </r>
       <r>   -2.6584    1.0000 </r>
       <r>   -2.4499    1.0000 </r>
       <r>   -2.4057    1.0000 </r>
       <r>   -2.3249    1.0000 </r>
       <r>   -2.2073    1.0000 </r>
       <r>   -2.1635    1.0000 </r>
       <r>   -2.1136    1.0000 </r>
       <r>   -2.0573    1.0000 </r>
       <r>   -1.9396    1.0000 </r>
       <r>   -1.8843    1.0000 </r>
       <r>   -1.8568    1.0000 </r>
       <r>   -1.7406    1.0000 </r>
       <r>   -1.6903    1.0000 </r>
       <r>   -1.6009    1.0000 </r>
       <r>   -1.4746    1.0000 </r>
       <r>   -1.4032    1.0000 </r>
       <r>   -1.3404    1.0000 </r>
       <r>   -1.1345    1.0039 </r>
       <r>   -1.0529    1.0146 </r>
       <r>   -0.9977    1.0268 </r>
       <r>   -0.8116    0.9148 </r>
       <r>   -0.7272    0.6388 </r>
       <r>   -0.6535    0.3326 </r>
       <r>   -0.6060    0.1647 </r>
       <r>   -0.5093   -0.0152 </r>
       <r>   -0.2865   -0.0071 </r>
       <r>   -0.1786   -0.0008 </r>
       <r>    0.6755   -0.0000 </r>
       <r>    0.8377   -0.0000 </r>
       <r>    1.0986   -0.0000 </r>
       <r>    1.5760   -0.0000 </r>
       <r>    1.9552   -0.0000 </r>
       <r>    2.0883   -0.0000 </r>
       <r>    2.4421   -0.0000 </r>
       <r>    2.7229   -0.0000 </r>
       <r>    3.4864   -0.0000 </r>
       <r>    3.8042   -0.0000 </r>
      </set>
      <set comment="kpoint 12">
       <r>   -8.4159    1.0000 </r>
       <r>   -8.0704    1.0000 </r>
       <r>   -7.4084    1.0000 </r>
       <r>   -7.1693    1.0000 </r>
       <r>   -6.5873    1.0000 </r>
       <r>   -6.5162    1.0000 </r>
       <r>   -6.4671    1.0000 </r>
       <r>   -6.3810    1.0000 </r>
       <r>   -6.3187    1.0000 </r>
       <r>   -6.2545    1.0000 </r>
       <r>   -6.2181    1.0000 </r>
       <r>   -6.1098    1.0000 </r>
       <r>   -6.0538    1.0000 </r>
       <r>   -5.9253    1.0000 </r>
       <r>   -5.8509    1.0000 </r>
       <r>   -5.7171    1.0000 </r>
       <r>   -5.5913    1.0000 </r>
       <r>   -5.5373    1.0000 </r>
       <r>   -5.4595    1.0000 </r>
       <r>   -5.4092    1.0000 </r>
       <r>   -5.2866    1.0000 </r>
       <r>   -5.2076    1.0000 </r>
       <r>   -5.1194    1.0000 </r>
       <r>   -5.0885    1.0000 </r>
       <r>   -5.0546    1.0000 </r>
       <r>   -5.0120    1.0000 </r>
       <r>   -4.9413    1.0000 </r>
       <r>   -4.8936    1.0000 </r>
       <r>   -4.7269    1.0000 </r>
       <r>   -4.6692    1.0000 </r>
       <r>   -4.5628    1.0000 </r>
       <r>   -4.5242    1.0000 </r>
       <r>   -4.4733    1.0000 </r>
       <r>   -4.4530    1.0000 </r>
       <r>   -4.3273    1.0000 </r>
       <r>   -4.2007    1.0000 </r>
       <r>   -4.1305    1.0000 </r>
       <r>   -4.0167    1.0000 </r>
       <r>   -3.9779    1.0000 </r>
       <r>   -3.9343    1.0000 </r>
       <r>   -3.8464    1.0000 </r>
       <r>   -3.8061    1.0000 </r>
       <r>   -3.7547    1.0000 </r>
       <r>   -3.7225    1.0000 </r>
       <r>   -3.6482    1.0000 </r>
       <r>   -3.5841    1.0000 </r>
       <r>   -3.5516    1.0000 </r>
       <r>   -3.5165    1.0000 </r>
       <r>   -3.4801    1.0000 </r>
       <r>   -3.4421    1.0000 </r>
       <r>   -3.4102    1.0000 </r>
       <r>   -3.3293    1.0000 </r>
       <r>   -3.2513    1.0000 </r>
[...]
       <r>   -4.2360    1.0000 </r>
       <r>   -4.2251    1.0000 </r>
       <r>   -4.1618    1.0000 </r>
       <r>   -4.0283    1.0000 </r>
       <r>   -3.9942    1.0000 </r>
       <r>   -3.9887    1.0000 </r>
       <r>   -3.9272    1.0000 </r>
       <r>   -3.8184    1.0000 </r>
       <r>   -3.7891    1.0000 </r>
       <r>   -3.6663    1.0000 </r>
       <r>   -3.6286    1.0000 </r>
       <r>   -3.5888    1.0000 </r>
       <r>   -3.5613    1.0000 </r>
       <r>   -3.5134    1.0000 </r>
       <r>   -3.4689    1.0000 </r>
       <r>   -3.4364    1.0000 </r>
       <r>   -3.2848    1.0000 </r>
       <r>   -3.2122    1.0000 </r>
       <r>   -3.0283    1.0000 </r>
       <r>   -2.9195    1.0000 </r>
       <r>   -2.8664    1.0000 </r>
       <r>   -2.7771    1.0000 </r>
       <r>   -2.6780    1.0000 </r>
       <r>   -2.6204    1.0000 </r>
       <r>   -2.5484    1.0000 </r>
       <r>   -2.4357    1.0000 </r>
       <r>   -2.3834    1.0000 </r>
       <r>   -2.3523    1.0000 </r>
       <r>   -2.3189    1.0000 </r>
       <r>   -2.2069    1.0000 </r>
       <r>   -2.1211    1.0000 </r>
       <r>   -2.0946    1.0000 </r>
       <r>   -2.0306    1.0000 </r>
       <r>   -1.9963    1.0000 </r>
       <r>   -1.9118    1.0000 </r>
       <r>   -1.8217    1.0000 </r>
       <r>   -1.7572    1.0000 </r>
       <r>   -1.6892    1.0000 </r>
       <r>   -1.5884    1.0000 </r>
       <r>   -1.4757    1.0000 </r>
       <r>   -1.3790    1.0000 </r>
       <r>   -1.2877    1.0001 </r>
       <r>   -1.0612    1.0131 </r>
       <r>   -0.9954    1.0273 </r>
       <r>   -0.8170    0.9267 </r>
       <r>   -0.7924    0.8658 </r>
       <r>   -0.6959    0.5082 </r>
       <r>   -0.5573    0.0461 </r>
       <r>   -0.4781   -0.0315 </r>
       <r>   -0.4066   -0.0304 </r>
       <r>   -0.3542   -0.0186 </r>
       <r>    0.3633   -0.0000 </r>
       <r>    0.4975   -0.0000 </r>
       <r>    0.9142   -0.0000 </r>
       <r>    1.5034   -0.0000 </r>
       <r>    1.6072   -0.0000 </r>
       <r>    2.4978   -0.0000 </r>
       <r>    2.7505   -0.0000 </r>
       <r>    3.2502   -0.0000 </r>
       <r>    3.5953   -0.0000 </r>
       <r>    4.0129   -0.0000 </r>
      </set>
     </set>
    </set>
   </array>
  </eigenvalues>
  <separator name="orbital magnetization" >
   <v name="MAGDIPOLOUT">      0.00000000      0.00000000      0.00000000</v>
  </separator>
  <dos>
   <i name="efermi">     -0.69392935 </i>
   <total>
    <array>
     <dimension dim="1">gridpoints</dimension>
     <dimension dim="2">spin</dimension>
     <field>energy</field>
     <field>total</field>
     <field>integrated</field>
     <set>
      <set comment="spin 1">
       <r>   -12.0609     0.0000     0.0000 </r>
       <r>   -11.9989     0.0000     0.0000 </r>
       <r>   -11.9369     0.0000     0.0000 </r>
       <r>   -11.8749     0.0000     0.0000 </r>
       <r>   -11.8129     0.0000     0.0000 </r>
       <r>   -11.7509     0.0000     0.0000 </r>
       <r>   -11.6889    -0.0000    -0.0000 </r>
       <r>   -11.6269    -0.0000    -0.0000 </r>
       <r>   -11.5650    -0.0000    -0.0000 </r>
       <r>   -11.5030    -0.0000    -0.0000 </r>
       <r>   -11.4410    -0.0000    -0.0000 </r>
       <r>   -11.3790    -0.0000    -0.0000 </r>
       <r>   -11.3170    -0.0000    -0.0000 </r>
       <r>   -11.2550    -0.0000    -0.0000 </r>
       <r>   -11.1930    -0.0000    -0.0000 </r>
       <r>   -11.1310    -0.0000    -0.0000 </r>
       <r>   -11.0691    -0.0000    -0.0000 </r>
       <r>   -11.0071    -0.0000    -0.0000 </r>
       <r>   -10.9451    -0.0000    -0.0000 </r>
       <r>   -10.8831    -0.0000    -0.0000 </r>
       <r>   -10.8211    -0.0000    -0.0000 </r>
       <r>   -10.7591    -0.0000    -0.0000 </r>
       <r>   -10.6971    -0.0000    -0.0000 </r>
       <r>   -10.6351    -0.0002    -0.0000 </r>
       <r>   -10.5732    -0.0008    -0.0001 </r>
       <r>   -10.5112    -0.0030    -0.0003 </r>
       <r>   -10.4492    -0.0087    -0.0008 </r>
       <r>   -10.3872    -0.0189    -0.0020 </r>
       <r>   -10.3252    -0.0281    -0.0037 </r>
       <r>   -10.2632    -0.0170    -0.0048 </r>
       <r>   -10.2012     0.0442    -0.0020 </r>
       <r>   -10.1392     0.1744     0.0088 </r>
       <r>   -10.0772     0.3593     0.0311 </r>
       <r>   -10.0153     0.5575     0.0656 </r>
       <r>    -9.9533     0.7318     0.1110 </r>
       <r>    -9.8913     0.8617     0.1644 </r>
       <r>    -9.8293     0.9300     0.2220 </r>
       <r>    -9.7673     0.9220     0.2792 </r>
       <r>    -9.7053     0.8498     0.3319 </r>
       <r>    -9.6433     0.7674     0.3794 </r>
       <r>    -9.5813     0.7507     0.4260 </r>
       <r>    -9.5194     0.8416     0.4781 </r>
       <r>    -9.4574     0.9926     0.5397 </r>
       <r>    -9.3954     1.0900     0.6072 </r>
       <r>    -9.3334     1.0616     0.6730 </r>
       <r>    -9.2714     0.9437     0.7315 </r>
       <r>    -9.2094     0.8222     0.7825 </r>
       <r>    -9.1474     0.7450     0.8287 </r>
       <r>    -9.0854     0.7276     0.8738 </r>
       <r>    -9.0234     0.8104     0.9240 </r>
       <r>    -8.9615     1.0400     0.9885 </r>
       <r>    -8.8995     1.3789     1.0740 </r>
       <r>    -8.8375     1.6920     1.1789 </r>
       <r>    -8.7755     1.8689     1.2947 </r>
       <r>    -8.7135     1.9227     1.4139 </r>
       <r>    -8.6515     1.9267     1.5333 </r>
       <r>    -8.5895     1.8965     1.6509 </r>
       <r>    -8.5275     1.8041     1.7627 </r>
       <r>    -8.4656     1.6928     1.8677 </r>
       <r>    -8.4036     1.7046     1.9733 </r>
       <r>    -8.3416     1.9531     2.0944 </r>
       <r>    -8.2796     2.3689     2.2412 </r>
       <r>    -8.2176     2.7058     2.4090 </r>
       <r>    -8.1556     2.7497     2.5794 </r>
       <r>    -8.0936     2.5233     2.7358 </r>
       <r>    -8.0316     2.2441     2.8749 </r>
       <r>    -7.9697     2.1033     3.0053 </r>
       <r>    -7.9077     2.1447     3.1383 </r>
       <r>    -7.8457     2.3474     3.2838 </r>
       <r>    -7.7837     2.7436     3.4538 </r>
       <r>    -7.7217     3.3977     3.6645 </r>
       <r>    -7.6597     4.2664     3.9289 </r>
       <r>    -7.5977     5.1258     4.2467 </r>
       <r>    -7.5357     5.7409     4.6025 </r>
       <r>    -7.4737     6.1612     4.9845 </r>
       <r>    -7.4118     6.7379     5.4021 </r>
       <r>    -7.3498     7.7560     5.8829 </r>
       <r>    -7.2878     9.1540     6.4503 </r>
       <r>    -7.2258    10.6736     7.1120 </r>
       <r>    -7.1638    12.1125     7.8628 </r>
       <r>    -7.1018    13.2886     8.6865 </r>
       <r>    -7.0398    13.9179     9.5493 </r>
       <r>    -6.9778    13.7747    10.4031 </r>
       <r>    -6.9159    13.0255    11.2106 </r>
       <r>    -6.8539    12.3253    11.9746 </r>
       <r>    -6.7919    12.5173    12.7505 </r>
       <r>    -6.7299    14.1254    13.6261 </r>
       <r>    -6.6679    16.9672    14.6779 </r>
       <r>    -6.6059    20.2049    15.9304 </r>
       <r>    -6.5439    22.8931    17.3495 </r>
       <r>    -6.4819    24.5612    18.8720 </r>
       <r>    -6.4199    25.2609    20.4378 </r>
       <r>    -6.3580    25.1950    21.9996 </r>
       <r>    -6.2960    24.5359    23.5206 </r>
       <r>    -6.2340    23.5576    24.9808 </r>
       <r>    -6.1720    22.6374    26.3841 </r>
       <r>    -6.1100    21.9804    27.7466 </r>
       <r>    -6.0480    21.4492    29.0762 </r>
       <r>    -5.9860    20.7432    30.3620 </r>
       <r>    -5.9240    19.7214    31.5845 </r>
       <r>    -5.8621    18.5586    32.7349 </r>
       <r>    -5.8001    17.6362    33.8282 </r>
       <r>    -5.7381    17.2747    34.8990 </r>
       <r>    -5.6761    17.5262    35.9854 </r>
       <r>    -5.6141    18.1934    37.1132 </r>
       <r>    -5.5521    19.0017    38.2911 </r>
       <r>    -5.4901    19.7254    39.5138 </r>
       <r>    -5.4281    20.2021    40.7661 </r>
       <r>    -5.3662    20.3219    42.0258 </r>
       <r>    -5.3042    20.0722    43.2701 </r>
       <r>    -5.2422    19.6241    44.4865 </r>
       <r>    -5.1802    19.3301    45.6848 </r>
       <r>    -5.1182    19.5084    46.8941 </r>
       <r>    -5.0562    20.1668    48.1442 </r>
       <r>    -4.9942    21.0059    49.4463 </r>
       <r>    -4.9322    21.6813    50.7902 </r>
       <r>    -4.8702    21.9650    52.1518 </r>
       <r>    -4.8083    21.7717    53.5014 </r>
       <r>    -4.7463    21.2933    54.8213 </r>
       <r>    -4.6843    21.1105    56.1299 </r>
       <r>    -4.6223    21.9216    57.4888 </r>
       <r>    -4.5603    24.0029    58.9767 </r>
       <r>    -4.4983    26.8788    60.6429 </r>
       <r>    -4.4363    29.4478    62.4683 </r>
       <r>    -4.3743    30.5389    64.3613 </r>
       <r>    -4.3124    29.7281    66.2041 </r>
       <r>    -4.2504    27.8548    67.9308 </r>
       <r>    -4.1884    26.5443    69.5762 </r>
       <r>    -4.1264    26.9291    71.2455 </r>
       <r>    -4.0644    28.8088    73.0313 </r>
       <r>    -4.0024    31.0992    74.9591 </r>
       <r>    -3.9404    32.9368    77.0008 </r>
       <r>    -3.8784    34.1714    79.1190 </r>
       <r>    -3.8164    34.9485    81.2854 </r>
       <r>    -3.7545    35.2328    83.4694 </r>
       <r>    -3.6925    34.9410    85.6353 </r>
       <r>    -3.6305    34.2781    87.7602 </r>
       <r>    -3.5685    33.5488    89.8398 </r>
       <r>    -3.5065    32.6049    91.8609 </r>
       <r>    -3.4445    30.8319    93.7721 </r>
       <r>    -3.3825    27.9060    95.5020 </r>
       <r>    -3.3205    24.3580    97.0119 </r>
       <r>    -3.2586    21.1597    98.3235 </r>
       <r>    -3.1966    18.9393    99.4975 </r>
       <r>    -3.1346    17.8427   100.6036 </r>
       <r>    -3.0726    17.9353   101.7153 </r>
       <r>    -3.0106    19.3089   102.9123 </r>
       <r>    -2.9486    21.7586   104.2610 </r>
       <r>    -2.8866    24.6365   105.7882 </r>
       <r>    -2.8246    27.1140   107.4689 </r>
       <r>    -2.7627    28.4613   109.2332 </r>
       <r>    -2.7007    28.1786   110.9799 </r>
       <r>    -2.6387    26.2686   112.6083 </r>
       <r>    -2.5767    23.5482   114.0680 </r>
       <r>    -2.5147    21.3542   115.3917 </r>
       <r>    -2.4527    20.5968   116.6685 </r>
       <r>    -2.3907    21.1581   117.9800 </r>
       <r>    -2.3287    22.3100   119.3630 </r>
       <r>    -2.2667    23.5043   120.8199 </r>
       <r>    -2.2048    24.5794   122.3436 </r>
       <r>    -2.1428    25.4353   123.9203 </r>
       <r>    -2.0808    25.8984   125.5257 </r>
       <r>    -2.0188    25.9918   127.1368 </r>
       <r>    -1.9568    26.0806   128.7535 </r>
       <r>    -1.8948    26.4859   130.3953 </r>
       <r>    -1.8328    26.9849   132.0681 </r>
       <r>    -1.7708    26.9284   133.7373 </r>
       <r>    -1.7089    25.9453   135.3456 </r>
       <r>    -1.6469    24.4098   136.8587 </r>
       <r>    -1.5849    23.1422   138.2933 </r>
       <r>    -1.5229    22.6857   139.6995 </r>
       <r>    -1.4609    22.8510   141.1160 </r>
       <r>    -1.3989    22.9223   142.5369 </r>
       <r>    -1.3369    22.3883   143.9247 </r>
       <r>    -1.2749    21.5471   145.2604 </r>
       <r>    -1.2129    21.3430   146.5834 </r>
       <r>    -1.1510    22.5385   147.9805 </r>
       <r>    -1.0890    24.9942   149.5299 </r>
       <r>    -1.0270    27.7032   151.2471 </r>
       <r>    -0.9650    29.5569   153.0793 </r>
       <r>    -0.9030    30.1484   154.9482 </r>
       <r>    -0.8410    29.8471   156.7983 </r>
       <r>    -0.7790    29.1770   158.6069 </r>
       <r>    -0.7170    28.3177   160.3623 </r>
       <r>    -0.6551    27.1859   162.0475 </r>
       <r>    -0.5931    25.6889   163.6399 </r>
       <r>    -0.5311    23.7499   165.1121 </r>
       <r>    -0.4691    21.3248   166.4340 </r>
       <r>    -0.4071    18.5973   167.5868 </r>
       <r>    -0.3451    16.0284   168.5804 </r>
       <r>    -0.2831    14.0379   169.4506 </r>
       <r>    -0.2211    12.6714   170.2361 </r>
       <r>    -0.1592    11.6243   170.9566 </r>
       <r>    -0.0972    10.5004   171.6075 </r>
       <r>    -0.0352     9.0207   172.1667 </r>
       <r>     0.0268     7.1645   172.6108 </r>
       <r>     0.0888     5.2506   172.9363 </r>
       <r>     0.1508     3.8052   173.1722 </r>
       <r>     0.2128     3.2127   173.3713 </r>
       <r>     0.2748     3.4301   173.5839 </r>
       <r>     0.3368     4.0304   173.8338 </r>
       <r>     0.3987     4.5559   174.1162 </r>
       <r>     0.4607     4.8704   174.4181 </r>
       <r>     0.5227     5.1514   174.7374 </r>
       <r>     0.5847     5.5315   175.0803 </r>
       <r>     0.6467     5.8577   175.4434 </r>
       <r>     0.7087     5.9016   175.8092 </r>
       <r>     0.7707     5.7049   176.1629 </r>
       <r>     0.8327     5.5436   176.5065 </r>
       <r>     0.8946     5.5982   176.8535 </r>
       <r>     0.9566     5.8163   177.2141 </r>
       <r>     1.0186     6.0385   177.5884 </r>
       <r>     1.0806     6.0812   177.9654 </r>
       <r>     1.1426     5.7544   178.3221 </r>
       <r>     1.2046     5.0101   178.6326 </r>
       <r>     1.2666     4.1016   178.8869 </r>
       <r>     1.3286     3.4733   179.1022 </r>
       <r>     1.3906     3.4465   179.3158 </r>
       <r>     1.4525     4.0084   179.5643 </r>
       <r>     1.5145     4.8369   179.8641 </r>
       <r>     1.5765     5.5065   180.2055 </r>
       <r>     1.6385     5.7742   180.5634 </r>
       <r>     1.7005     5.7529   180.9200 </r>
       <r>     1.7625     5.7689   181.2776 </r>
       <r>     1.8245     5.9812   181.6484 </r>
       <r>     1.8865     6.1655   182.0306 </r>
       <r>     1.9484     5.9369   182.3986 </r>
       <r>     2.0104     5.1719   182.7192 </r>
       <r>     2.0724     4.1483   182.9763 </r>
       <r>     2.1344     3.3085   183.1814 </r>
       <r>     2.1964     2.9821   183.3663 </r>
       <r>     2.2584     3.2821   183.5697 </r>
       <r>     2.3204     4.0966   183.8237 </r>
       <r>     2.3824     5.1343   184.1419 </r>
       <r>     2.4444     6.0661   184.5180 </r>
       <r>     2.5063     6.6710   184.9315 </r>
       <r>     2.5683     6.8521   185.3562 </r>
       <r>     2.6303     6.5689   185.7634 </r>
       <r>     2.6923     5.8541   186.1263 </r>
       <r>     2.7543     4.9191   186.4312 </r>
       <r>     2.8163     4.1328   186.6874 </r>
       <r>     2.8783     3.7806   186.9218 </r>
       <r>     2.9403     3.8508   187.1605 </r>
       <r>     3.0022     4.1036   187.4148 </r>
       <r>     3.0642     4.3206   187.6827 </r>
       <r>     3.1262     4.4420   187.9580 </r>
       <r>     3.1882     4.4972   188.2368 </r>
       <r>     3.2502     4.4759   188.5142 </r>
       <r>     3.3122     4.2970   188.7806 </r>
       <r>     3.3742     3.9241   189.0238 </r>
       <r>     3.4362     3.5028   189.2410 </r>
       <r>     3.4981     3.2945   189.4452 </r>
       <r>     3.5601     3.4111   189.6566 </r>
       <r>     3.6221     3.6786   189.8847 </r>
       <r>     3.6841     3.8305   190.1221 </r>
       <r>     3.7461     3.7748   190.3561 </r>
       <r>     3.8081     3.5972   190.5791 </r>
       <r>     3.8701     3.3680   190.7879 </r>
       <r>     3.9321     3.0744   190.9784 </r>
       <r>     3.9941     2.7401   191.1483 </r>
       <r>     4.0560     2.4833   191.3022 </r>
       <r>     4.1180     2.3858   191.4501 </r>
       <r>     4.1800     2.3552   191.5961 </r>
       <r>     4.2420     2.1840   191.7315 </r>
       <r>     4.3040     1.7553   191.8403 </r>
       <r>     4.3660     1.1675   191.9127 </r>
       <r>     4.4280     0.6429   191.9525 </r>
       <r>     4.4900     0.3286   191.9729 </r>
       <r>     4.5519     0.2014   191.9854 </r>
       <r>     4.6139     0.1484   191.9946 </r>
       <r>     4.6759     0.0935   192.0004 </r>
       <r>     4.7379     0.0347   192.0025 </r>
       <r>     4.7999    -0.0039   192.0023 </r>
       <r>     4.8619    -0.0156   192.0013 </r>
       <r>     4.9239    -0.0122   192.0006 </r>
       <r>     4.9859    -0.0061   192.0002 </r>
       <r>     5.0479    -0.0022   192.0000 </r>
       <r>     5.1098    -0.0006   192.0000 </r>
       <r>     5.1718    -0.0001   192.0000 </r>
       <r>     5.2338    -0.0000   192.0000 </r>
       <r>     5.2958    -0.0000   192.0000 </r>
       <r>     5.3578    -0.0000   192.0000 </r>
       <r>     5.4198    -0.0000   192.0000 </r>
       <r>     5.4818    -0.0000   192.0000 </r>
       <r>     5.5438    -0.0000   192.0000 </r>
       <r>     5.6057    -0.0000   192.0000 </r>
       <r>     5.6677    -0.0000   192.0000 </r>
       <r>     5.7297    -0.0000   192.0000 </r>
       <r>     5.7917    -0.0000   192.0000 </r>
       <r>     5.8537     0.0000   192.0000 </r>
       <r>     5.9157     0.0000   192.0000 </r>
       <r>     5.9777     0.0000   192.0000 </r>
       <r>     6.0397     0.0000   192.0000 </r>
       <r>     6.1016     0.0000   192.0000 </r>
       <r>     6.1636     0.0000   192.0000 </r>
       <r>     6.2256     0.0000   192.0000 </r>
       <r>     6.2876     0.0000   192.0000 </r>
       <r>     6.3496     0.0000   192.0000 </r>
       <r>     6.4116     0.0000   192.0000 </r>
       <r>     6.4736     0.0000   192.0000 </r>
       <r>     6.5356     0.0000   192.0000 </r>
      </set>
     </set>
    </array>
   </total>
  </dos>
 </calculation>
 <structure name="finalpos" >
  <crystal>
   <varray name="basis" >
    <v>       5.55785930       0.00000000       0.00000000 </v>
    <v>       2.77892965       4.81324734       0.00000000 </v>
    <v>       0.00000000       0.00000000      30.80695967 </v>
   </varray>
   <i name="volume">    824.12780743 </i>
   <varray name="rec_basis" >
    <v>       0.17992539      -0.10387997       0.00000000 </v>
    <v>       0.00000000       0.20775994       0.00000000 </v>
    <v>       0.00000000       0.00000000       0.03246020 </v>
   </varray>
  </crystal>
  <varray name="positions" >
   <v>       0.00000000       0.00000000       0.38952237 </v>
   <v>       0.50000000       0.00000000       0.38952237 </v>
   <v>       0.00000000       0.50000000       0.38952237 </v>
   <v>       0.50000000       0.50000000       0.38952237 </v>
   <v>       0.16652883       0.16652883       0.46542487 </v>
   <v>       0.66694234       0.16652883       0.46542487 </v>
   <v>       0.16652883       0.66694234       0.46542487 </v>
   <v>       0.66666667       0.66666667       0.46426737 </v>
   <v>       0.83396869       0.33206261       0.54005199 </v>
   <v>       0.33333333       0.33333333       0.53994492 </v>
   <v>       0.83396869       0.83396869       0.54005199 </v>
   <v>       0.00000000       0.00000000       0.61904352 </v>
   <v>       0.50048728       0.99902544       0.61498914 </v>
   <v>       0.99902544       0.50048728       0.61498914 </v>
   <v>       0.50048728       0.50048728       0.61498914 </v>
   <v>       0.33206261       0.83396869       0.54005199 </v>
   <v>       0.00000000       0.00000000       0.66953436 </v>
  </varray>
  <varray name="selective"  type="logical" >
   <v type="logical" >  F  F  F </v>
   <v type="logical" >  F  F  F </v>
   <v type="logical" >  F  F  F </v>
   <v type="logical" >  F  F  F </v>
   <v type="logical" >  T  T  T </v>
   <v type="logical" >  T  T  T </v>
   <v type="logical" >  T  T  T </v>
   <v type="logical" >  T  T  T </v>
   <v type="logical" >  T  T  T </v>
   <v type="logical" >  T  T  T </v>
   <v type="logical" >  T  T  T </v>
   <v type="logical" >  T  T  T </v>
   <v type="logical" >  T  T  T </v>
   <v type="logical" >  T  T  T </v>
   <v type="logical" >  T  T  T </v>
   <v type="logical" >  T  T  T </v>
   <v type="logical" >  T  T  T </v>
  </varray>
  <nose>
   <v>      -3.00000000       0.00000000       0.00010000       0.00010000 </v>
  </nose>
 </structure>
</modeling>
