  17  17   0   0
  0.4847811E+02  0.5557859E-09  0.5557859E-09  0.3080696E-08  0.5000000E-15
  1.000000000000000E-004
  CAR 
 unknown system                          
      9.69985559    -12.03157533  301     -0.70371063      1.00000000
    -12.032  0.0000E+00  0.0000E+00
    -11.959  0.0000E+00  0.0000E+00
    -11.887  0.0000E+00  0.0000E+00
    -11.814  0.0000E+00  0.0000E+00
    -11.742  0.0000E+00  0.0000E+00
    -11.669 -0.2996E-31 -0.2170E-32
    -11.597 -0.9478E-29 -0.6887E-30
    -11.525 -0.2299E-26 -0.1672E-27
    -11.452 -0.4280E-24 -0.3117E-25
    -11.380 -0.6114E-22 -0.4460E-23
    -11.307 -0.6699E-20 -0.4898E-21
    -11.235 -0.5629E-18 -0.4127E-19
    -11.162 -0.3510E-16 -0.2584E-17
    -11.090 -0.1726E-14 -0.1276E-15
    -11.017 -0.6486E-13 -0.4826E-14
    -10.945 -0.1862E-11 -0.1397E-12
    -10.873 -0.4078E-10 -0.3094E-11
    -10.800 -0.6802E-09 -0.5236E-10
    -10.728 -0.8612E-08 -0.6762E-09
    -10.655 -0.8242E-07 -0.6647E-08
    -10.583 -0.5924E-06 -0.4956E-07
    -10.510 -0.3162E-05 -0.2786E-06
    -10.438 -0.1228E-04 -0.1168E-05
    -10.365 -0.3326E-04 -0.3578E-05
    -10.293 -0.5543E-04 -0.7593E-05
    -10.221 -0.2340E-04 -0.9288E-05
    -10.148  0.1538E-03  0.1850E-05
    -10.076  0.5142E-03  0.3910E-04
    -10.003  0.9745E-03  0.1097E-03
     -9.931  0.1403E-02  0.2114E-03
     -9.858  0.1720E-02  0.3359E-03
     -9.786  0.1868E-02  0.4713E-03
     -9.714  0.1810E-02  0.6023E-03
     -9.641  0.1616E-02  0.7194E-03
     -9.569  0.1497E-02  0.8279E-03
     -9.496  0.1646E-02  0.9471E-03
     -9.424  0.1987E-02  0.1091E-02
     -9.351  0.2187E-02  0.1249E-02
     -9.279  0.2056E-02  0.1398E-02
     -9.206  0.1763E-02  0.1526E-02
     -9.134  0.1540E-02  0.1638E-02
     -9.062  0.1460E-02  0.1743E-02
     -8.989  0.1612E-02  0.1860E-02
     -8.917  0.2126E-02  0.2014E-02
     -8.844  0.2871E-02  0.2222E-02
     -8.772  0.3456E-02  0.2472E-02
     -8.699  0.3700E-02  0.2740E-02
     -8.627  0.3773E-02  0.3014E-02
     -8.555  0.3769E-02  0.3287E-02
     -8.482  0.3599E-02  0.3548E-02
     -8.410  0.3400E-02  0.3794E-02
     -8.337  0.3603E-02  0.4055E-02
     -8.265  0.4396E-02  0.4373E-02
     -8.192  0.5285E-02  0.4756E-02
     -8.120  0.5530E-02  0.5157E-02
     -8.047  0.5039E-02  0.5522E-02
     -7.975  0.4426E-02  0.5842E-02
     -7.903  0.4165E-02  0.6144E-02
     -7.830  0.4294E-02  0.6455E-02
     -7.758  0.4950E-02  0.6813E-02
     -7.685  0.6463E-02  0.7282E-02
     -7.613  0.8658E-02  0.7909E-02
     -7.540  0.1066E-01  0.8681E-02
     -7.468  0.1197E-01  0.9548E-02
     -7.396  0.1327E-01  0.1051E-01
     -7.323  0.1550E-01  0.1163E-01
     -7.251  0.1863E-01  0.1298E-01
     -7.178  0.2204E-01  0.1458E-01
     -7.106  0.2524E-01  0.1641E-01
     -7.033  0.2749E-01  0.1840E-01
     -6.961  0.2791E-01  0.2042E-01
     -6.888  0.2648E-01  0.2234E-01
     -6.816  0.2454E-01  0.2412E-01
     -6.744  0.2412E-01  0.2586E-01
     -6.671  0.2678E-01  0.2780E-01
     -6.599  0.3271E-01  0.3017E-01
     -6.526  0.4023E-01  0.3309E-01
     -6.454  0.4678E-01  0.3648E-01
     -6.381  0.5058E-01  0.4014E-01
     -6.309  0.5125E-01  0.4385E-01
     -6.237  0.4950E-01  0.4744E-01
     -6.164  0.4676E-01  0.5082E-01
     -6.092  0.4459E-01  0.5405E-01
     -6.019  0.4354E-01  0.5721E-01
     -5.947  0.4272E-01  0.6030E-01
     -5.874  0.4069E-01  0.6325E-01
     -5.802  0.3699E-01  0.6593E-01
     -5.729  0.3257E-01  0.6829E-01
     -5.657  0.2904E-01  0.7039E-01
     -5.585  0.2784E-01  0.7241E-01
     -5.512  0.2995E-01  0.7458E-01
     -5.440  0.3498E-01  0.7711E-01
     -5.367  0.4063E-01  0.8006E-01
     -5.295  0.4388E-01  0.8324E-01
     -5.222  0.4365E-01  0.8640E-01
     -5.150  0.4192E-01  0.8943E-01
     -5.078  0.4130E-01  0.9243E-01
     -5.005  0.4181E-01  0.9545E-01
     -4.933  0.4138E-01  0.9845E-01
     -4.860  0.3951E-01  0.1013E+00
     -4.788  0.3844E-01  0.1041E+00
     -4.715  0.4019E-01  0.1070E+00
     -4.643  0.4410E-01  0.1102E+00
     -4.570  0.4821E-01  0.1137E+00
     -4.498  0.5157E-01  0.1174E+00
     -4.426  0.5418E-01  0.1214E+00
     -4.353  0.5578E-01  0.1254E+00
     -4.281  0.5601E-01  0.1295E+00
     -4.208  0.5515E-01  0.1334E+00
     -4.136  0.5440E-01  0.1374E+00
     -4.063  0.5513E-01  0.1414E+00
     -3.991  0.5778E-01  0.1456E+00
     -3.919  0.6173E-01  0.1500E+00
     -3.846  0.6601E-01  0.1548E+00
     -3.774  0.6986E-01  0.1599E+00
     -3.701  0.7276E-01  0.1652E+00
     -3.629  0.7444E-01  0.1705E+00
     -3.556  0.7437E-01  0.1759E+00
     -3.484  0.7144E-01  0.1811E+00
     -3.411  0.6521E-01  0.1858E+00
     -3.339  0.5726E-01  0.1900E+00
     -3.267  0.4987E-01  0.1936E+00
     -3.194  0.4337E-01  0.1967E+00
     -3.122  0.3665E-01  0.1994E+00
     -3.049  0.3077E-01  0.2016E+00
     -2.977  0.2995E-01  0.2038E+00
     -2.904  0.3730E-01  0.2065E+00
     -2.832  0.5017E-01  0.2101E+00
     -2.759  0.6131E-01  0.2146E+00
     -2.687  0.6445E-01  0.2192E+00
     -2.615  0.5885E-01  0.2235E+00
     -2.542  0.4931E-01  0.2271E+00
     -2.470  0.4220E-01  0.2301E+00
     -2.397  0.4079E-01  0.2331E+00
     -2.325  0.4357E-01  0.2362E+00
     -2.252  0.4663E-01  0.2396E+00
     -2.180  0.4764E-01  0.2431E+00
     -2.108  0.4741E-01  0.2465E+00
     -2.035  0.4830E-01  0.2500E+00
     -1.963  0.5154E-01  0.2537E+00
     -1.890  0.5603E-01  0.2578E+00
     -1.818  0.5928E-01  0.2621E+00
     -1.745  0.5914E-01  0.2664E+00
     -1.673  0.5525E-01  0.2704E+00
     -1.600  0.4931E-01  0.2739E+00
     -1.528  0.4424E-01  0.2771E+00
     -1.456  0.4240E-01  0.2802E+00
     -1.383  0.4356E-01  0.2834E+00
     -1.311  0.4526E-01  0.2867E+00
     -1.238  0.4606E-01  0.2900E+00
     -1.166  0.4756E-01  0.2934E+00
     -1.093  0.5197E-01  0.2972E+00
     -1.021  0.5868E-01  0.3014E+00
     -0.949  0.6433E-01  0.3061E+00
     -0.876  0.6656E-01  0.3109E+00
     -0.804  0.6591E-01  0.3157E+00
     -0.731  0.6366E-01  0.3203E+00
     -0.659  0.5962E-01  0.3246E+00
     -0.586  0.5361E-01  0.3285E+00
     -0.514  0.4704E-01  0.3319E+00
     -0.441  0.4099E-01  0.3349E+00
     -0.369  0.3468E-01  0.3374E+00
     -0.297  0.2778E-01  0.3394E+00
     -0.224  0.2196E-01  0.3410E+00
     -0.152  0.1858E-01  0.3424E+00
     -0.079  0.1679E-01  0.3436E+00
     -0.007  0.1472E-01  0.3446E+00
      0.066  0.1172E-01  0.3455E+00
      0.138  0.8695E-02  0.3461E+00
      0.210  0.6940E-02  0.3466E+00
      0.283  0.6861E-02  0.3471E+00
      0.355  0.7741E-02  0.3477E+00
      0.428  0.8627E-02  0.3483E+00
      0.500  0.9391E-02  0.3490E+00
      0.573  0.1059E-01  0.3498E+00
      0.645  0.1208E-01  0.3506E+00
      0.718  0.1275E-01  0.3515E+00
      0.790  0.1204E-01  0.3524E+00
      0.862  0.1081E-01  0.3532E+00
      0.935  0.1011E-01  0.3539E+00
      1.007  0.1011E-01  0.3547E+00
      1.080  0.1054E-01  0.3554E+00
      1.152  0.1097E-01  0.3562E+00
      1.225  0.1075E-01  0.3570E+00
      1.297  0.9493E-02  0.3577E+00
      1.369  0.7770E-02  0.3583E+00
      1.442  0.6826E-02  0.3588E+00
      1.514  0.7553E-02  0.3593E+00
      1.587  0.9576E-02  0.3600E+00
      1.659  0.1148E-01  0.3608E+00
      1.732  0.1240E-01  0.3617E+00
      1.804  0.1283E-01  0.3627E+00
      1.877  0.1312E-01  0.3636E+00
      1.949  0.1241E-01  0.3645E+00
      2.021  0.1022E-01  0.3652E+00
      2.094  0.7728E-02  0.3658E+00
      2.166  0.6510E-02  0.3663E+00
      2.239  0.6774E-02  0.3668E+00
      2.311  0.7853E-02  0.3673E+00
      2.384  0.9419E-02  0.3680E+00
      2.456  0.1138E-01  0.3688E+00
      2.528  0.1317E-01  0.3698E+00
      2.601  0.1392E-01  0.3708E+00
      2.673  0.1312E-01  0.3718E+00
      2.746  0.1123E-01  0.3726E+00
      2.818  0.9361E-02  0.3732E+00
      2.891  0.8447E-02  0.3739E+00
      2.963  0.8408E-02  0.3745E+00
      3.036  0.8524E-02  0.3751E+00
      3.108  0.8477E-02  0.3757E+00
      3.180  0.8636E-02  0.3763E+00
      3.253  0.9219E-02  0.3770E+00
      3.325  0.9588E-02  0.3777E+00
      3.398  0.9007E-02  0.3783E+00
      3.470  0.7915E-02  0.3789E+00
      3.543  0.7565E-02  0.3795E+00
      3.615  0.8380E-02  0.3801E+00
      3.687  0.9524E-02  0.3808E+00
      3.760  0.9976E-02  0.3815E+00
      3.832  0.9429E-02  0.3822E+00
      3.905  0.8327E-02  0.3828E+00
      3.977  0.7501E-02  0.3833E+00
      4.050  0.7702E-02  0.3839E+00
      4.122  0.9042E-02  0.3845E+00
      4.195  0.1070E-01  0.3853E+00
      4.267  0.1150E-01  0.3861E+00
      4.339  0.1098E-01  0.3869E+00
      4.412  0.9764E-02  0.3876E+00
      4.484  0.8855E-02  0.3883E+00
      4.557  0.8667E-02  0.3889E+00
      4.629  0.8879E-02  0.3895E+00
      4.702  0.8952E-02  0.3902E+00
      4.774  0.8788E-02  0.3908E+00
      4.847  0.8818E-02  0.3915E+00
      4.919  0.9357E-02  0.3921E+00
      4.991  0.1041E-01  0.3929E+00
      5.064  0.1233E-01  0.3938E+00
      5.136  0.1567E-01  0.3949E+00
      5.209  0.2010E-01  0.3964E+00
      5.281  0.2405E-01  0.3981E+00
      5.354  0.2579E-01  0.4000E+00
      5.426  0.2476E-01  0.4018E+00
      5.498  0.2220E-01  0.4034E+00
      5.571  0.2033E-01  0.4049E+00
      5.643  0.2028E-01  0.4063E+00
      5.716  0.2119E-01  0.4079E+00
      5.788  0.2183E-01  0.4095E+00
      5.861  0.2184E-01  0.4110E+00
      5.933  0.2125E-01  0.4126E+00
      6.006  0.2023E-01  0.4140E+00
      6.078  0.1948E-01  0.4154E+00
      6.150  0.1959E-01  0.4169E+00
      6.223  0.2048E-01  0.4184E+00
      6.295  0.2173E-01  0.4199E+00
      6.368  0.2268E-01  0.4216E+00
      6.440  0.2271E-01  0.4232E+00
      6.513  0.2189E-01  0.4248E+00
      6.585  0.2089E-01  0.4263E+00
      6.657  0.2039E-01  0.4278E+00
      6.730  0.2053E-01  0.4293E+00
      6.802  0.2085E-01  0.4308E+00
      6.875  0.2097E-01  0.4323E+00
      6.947  0.2137E-01  0.4339E+00
      7.020  0.2248E-01  0.4355E+00
      7.092  0.2364E-01  0.4372E+00
      7.165  0.2395E-01  0.4389E+00
      7.237  0.2334E-01  0.4406E+00
      7.309  0.2224E-01  0.4422E+00
      7.382  0.2106E-01  0.4438E+00
      7.454  0.1967E-01  0.4452E+00
      7.527  0.1708E-01  0.4464E+00
      7.599  0.1257E-01  0.4473E+00
      7.672  0.7125E-02  0.4478E+00
      7.744  0.2745E-02  0.4480E+00
      7.816  0.3987E-03  0.4481E+00
      7.889 -0.3498E-03  0.4480E+00
      7.961 -0.3598E-03  0.4480E+00
      8.034 -0.1984E-03  0.4480E+00
      8.106 -0.7793E-04  0.4480E+00
      8.179 -0.2296E-04  0.4480E+00
      8.251 -0.5137E-05  0.4480E+00
      8.324 -0.8751E-06  0.4480E+00
      8.396 -0.1136E-06  0.4480E+00
      8.468 -0.1126E-07  0.4480E+00
      8.541 -0.8529E-09  0.4480E+00
      8.613 -0.4941E-10  0.4480E+00
      8.686 -0.2192E-11  0.4480E+00
      8.758 -0.7451E-13  0.4480E+00
      8.831 -0.1943E-14  0.4480E+00
      8.903 -0.3908E-16  0.4480E+00
      8.975 -0.3832E-18  0.4480E+00
      9.048  0.0000E+00  0.4480E+00
      9.120  0.0000E+00  0.4480E+00
      9.193  0.0000E+00  0.4480E+00
      9.265  0.0000E+00  0.4480E+00
      9.338  0.0000E+00  0.4480E+00
      9.410  0.0000E+00  0.4480E+00
      9.483  0.0000E+00  0.4480E+00
      9.555  0.0000E+00  0.4480E+00
      9.627  0.0000E+00  0.4480E+00
      9.700  0.0000E+00  0.4480E+00
