<?xml version="1.0" encoding="ISO-8859-1"?>
<modeling>
 <generator>
  <i name="program" type="string">vasp </i>
  <i name="version" type="string">5.4.4.18Apr17-6-g9f103f2a35  </i>
  <i name="subversion" type="string">(build Apr 28 2017 10:53:45) complex            parallel </i>
  <i name="platform" type="string">LinuxIFC </i>
  <i name="date" type="string">2017 08 11 </i>
  <i name="time" type="string">09:16:16 </i>
 </generator>
 <incar>
  <i type="string" name="PREC">normal</i>
  <i type="int" name="ISPIN">     1</i>
  <i type="int" name="IBRION">     2</i>
  <i name="EDIFF">      0.00001000</i>
  <i name="EDIFFG">     -0.05000000</i>
  <i type="int" name="NSW">   500</i>
  <i name="ENCUT">    350.00000000</i>
  <i type="logical" name="LWAVE"> F  </i>
  <i type="logical" name="LCHARG"> F  </i>
  <v type="int" name="KPOINT_BSE">    -1     0     0     0</v>
  <i type="string" name="GGA"> PE</i>
  <i type="int" name="IDIPOL">     3</i>
 </incar>
 <structure name="primitive_cell" >
  <crystal>
   <varray name="basis" >
    <v>       5.55785930       0.00000000       0.00000000 </v>
    <v>       2.77892965       4.81324734       0.00000000 </v>
    <v>       0.00000000       0.00000000      30.80695967 </v>
   </varray>
   <i name="volume">    824.12780743 </i>
   <varray name="rec_basis" >
    <v>       0.17992539      -0.10387997       0.00000000 </v>
    <v>       0.00000000       0.20775994       0.00000000 </v>
    <v>       0.00000000       0.00000000       0.03246020 </v>
   </varray>
  </crystal>
  <varray name="positions" >
   <v>       0.00000000       0.00000000       0.38952237 </v>
   <v>       0.00000000      -0.50000000       0.38952237 </v>
   <v>      -0.50000000      -0.50000000       0.38952237 </v>
   <v>      -0.50000000       0.00000000       0.38952237 </v>
   <v>       0.16666667       0.16666667       0.46317412 </v>
   <v>       0.16666667      -0.33333333       0.46317412 </v>
   <v>      -0.33333333       0.16666667       0.46317412 </v>
   <v>      -0.33333333      -0.33333333       0.46317412 </v>
   <v>      -0.16666667      -0.16666667      -0.46317412 </v>
   <v>      -0.16666667       0.33333333      -0.46317412 </v>
   <v>       0.33333333      -0.16666667      -0.46317412 </v>
   <v>       0.33333333       0.33333333      -0.46317412 </v>
   <v>       0.00000000       0.00000000      -0.38952237 </v>
   <v>      -0.50000000       0.00000000      -0.38952237 </v>
   <v>       0.00000000      -0.50000000      -0.38952237 </v>
   <v>      -0.50000000      -0.50000000      -0.38952237 </v>
   <v>       0.00000000       0.00000000      -0.33109402 </v>
  </varray>
 </structure>
 <varray name="primitive_index" >
  <v type="int" >        1 </v>
  <v type="int" >        3 </v>
  <v type="int" >        4 </v>
  <v type="int" >        2 </v>
  <v type="int" >        5 </v>
  <v type="int" >        7 </v>
  <v type="int" >        6 </v>
  <v type="int" >        8 </v>
  <v type="int" >       11 </v>
  <v type="int" >        9 </v>
  <v type="int" >       12 </v>
  <v type="int" >       10 </v>
  <v type="int" >       13 </v>
  <v type="int" >       14 </v>
  <v type="int" >       15 </v>
  <v type="int" >       16 </v>
  <v type="int" >       17 </v>
 </varray>
 <kpoints>
  <generation param="Monkhorst-Pack">
   <v type="int" name="divisions">       8        8        1 </v>
   <v name="usershift">      0.00000000       0.00000000       0.00000000 </v>
   <v name="genvec1">      0.12500000       0.00000000       0.00000000 </v>
   <v name="genvec2">      0.00000000       0.12500000       0.00000000 </v>
   <v name="genvec3">      0.00000000       0.00000000       1.00000000 </v>
   <v name="shift">      0.50000000       0.50000000       0.00000000 </v>
  </generation>
  <varray name="kpointlist" >
   <v>       0.06250000       0.06250000       0.00000000 </v>
   <v>       0.18750000       0.06250000       0.00000000 </v>
   <v>       0.31250000       0.06250000       0.00000000 </v>
   <v>       0.43750000       0.06250000       0.00000000 </v>
   <v>      -0.43750000       0.06250000       0.00000000 </v>
   <v>      -0.31250000       0.06250000       0.00000000 </v>
   <v>      -0.18750000       0.06250000       0.00000000 </v>
   <v>      -0.06250000       0.06250000       0.00000000 </v>
   <v>       0.18750000       0.18750000       0.00000000 </v>
   <v>       0.31250000       0.18750000       0.00000000 </v>
   <v>       0.43750000       0.18750000       0.00000000 </v>
   <v>      -0.43750000       0.18750000       0.00000000 </v>
   <v>      -0.31250000       0.18750000       0.00000000 </v>
   <v>      -0.18750000       0.18750000       0.00000000 </v>
   <v>       0.31250000       0.31250000       0.00000000 </v>
   <v>       0.43750000       0.31250000       0.00000000 </v>
   <v>      -0.43750000       0.31250000       0.00000000 </v>
   <v>      -0.31250000       0.31250000       0.00000000 </v>
   <v>       0.43750000       0.43750000       0.00000000 </v>
   <v>      -0.43750000       0.43750000       0.00000000 </v>
  </varray>
  <varray name="weights" >
   <v>       0.03125000 </v>
   <v>       0.06250000 </v>
   <v>       0.06250000 </v>
   <v>       0.06250000 </v>
   <v>       0.06250000 </v>
   <v>       0.06250000 </v>
   <v>       0.06250000 </v>
   <v>       0.03125000 </v>
   <v>       0.03125000 </v>
   <v>       0.06250000 </v>
   <v>       0.06250000 </v>
   <v>       0.06250000 </v>
   <v>       0.06250000 </v>
   <v>       0.03125000 </v>
   <v>       0.03125000 </v>
   <v>       0.06250000 </v>
   <v>       0.06250000 </v>
   <v>       0.03125000 </v>
   <v>       0.03125000 </v>
   <v>       0.03125000 </v>
  </varray>
 </kpoints>
 <parameters>
  <separator name="general" >
   <i type="string" name="SYSTEM">unknown system</i>
   <i type="logical" name="LCOMPAT"> F  </i>
  </separator>
  <separator name="electronic" >
   <i type="string" name="PREC">normal</i>
   <i name="ENMAX">    350.00000000</i>
   <i name="ENAUG">    400.00000000</i>
   <i name="EDIFF">      0.00001000</i>
   <i type="int" name="IALGO">    38</i>
   <i type="int" name="IWAVPR">    11</i>
   <i type="int" name="NBANDS">   112</i>
   <i name="NELECT">    161.00000000</i>
   <i type="int" name="TURBO">     0</i>
   <i type="int" name="IRESTART">     0</i>
   <i type="int" name="NREBOOT">     0</i>
   <i type="int" name="NMIN">     0</i>
   <i name="EREF">      0.00000000</i>
   <separator name="electronic smearing" >
    <i type="int" name="ISMEAR">     1</i>
    <i name="SIGMA">      0.20000000</i>
    <i name="KSPACING">      0.50000000</i>
    <i type="logical" name="KGAMMA"> T  </i>
   </separator>
   <separator name="electronic projectors" >
    <i type="logical" name="LREAL"> F  </i>
    <v name="ROPT">      0.00000000      0.00000000</v>
    <i type="int" name="LMAXPAW">  -100</i>
    <i type="int" name="LMAXMIX">     2</i>
    <i type="logical" name="NLSPLINE"> F  </i>
   </separator>
   <separator name="electronic startup" >
    <i type="int" name="ISTART">     0</i>
    <i type="int" name="ICHARG">     2</i>
    <i type="int" name="INIWAV">     1</i>
   </separator>
   <separator name="electronic spin" >
    <i type="int" name="ISPIN">     1</i>
    <i type="logical" name="LNONCOLLINEAR"> F  </i>
    <v name="MAGMOM">      1.00000000      1.00000000      1.00000000      1.00000000      1.00000000      1.00000000      1.00000000      1.00000000      1.00000000      1.00000000      1.00000000      1.00000000      1.00000000      1.00000000      1.00000000      1.00000000      1.00000000</v>
    <i name="NUPDOWN">     -1.00000000</i>
    <i type="logical" name="LSORBIT"> F  </i>
    <v name="SAXIS">      0.00000000      0.00000000      1.00000000</v>
    <i type="logical" name="LSPIRAL"> F  </i>
    <v name="QSPIRAL">      0.00000000      0.00000000      0.00000000</v>
    <i type="logical" name="LZEROZ"> F  </i>
   </separator>
   <separator name="electronic exchange-correlation" >
    <i type="logical" name="LASPH"> F  </i>
    <i type="logical" name="LMETAGGA"> F  </i>
   </separator>
   <separator name="electronic convergence" >
    <i type="int" name="NELM">    60</i>
    <i type="int" name="NELMDL">    -5</i>
    <i type="int" name="NELMIN">     2</i>
    <i name="ENINI">    350.00000000</i>
    <separator name="electronic convergence detail" >
     <i type="logical" name="LDIAG"> T  </i>
     <i type="logical" name="LSUBROT"> F  </i>
     <i name="WEIMIN">      0.00100000</i>
     <i name="EBREAK">      0.00000002</i>
     <i name="DEPER">      0.30000000</i>
     <i type="int" name="NRMM">     4</i>
     <i name="TIME">      0.40000000</i>
    </separator>
   </separator>
   <separator name="electronic mixer" >
    <i name="AMIX">      0.40000000</i>
    <i name="BMIX">      1.00000000</i>
    <i name="AMIN">      0.10000000</i>
    <i name="AMIX_MAG">      1.60000000</i>
    <i name="BMIX_MAG">      1.00000000</i>
    <separator name="electronic mixer details" >
     <i type="int" name="IMIX">     4</i>
     <i type="logical" name="MIXFIRST"> F  </i>
     <i type="int" name="MAXMIX">   -45</i>
     <i name="WC">    100.00000000</i>
     <i type="int" name="INIMIX">     1</i>
     <i type="int" name="MIXPRE">     1</i>
     <i type="int" name="MREMOVE">     5</i>
    </separator>
   </separator>
   <separator name="electronic dipolcorrection" >
    <i type="logical" name="LDIPOL"> F  </i>
    <i type="logical" name="LMONO"> F  </i>
    <i type="int" name="IDIPOL">     3</i>
    <i name="EPSILON">      1.00000000</i>
    <v name="DIPOL">   -100.00000000   -100.00000000   -100.00000000</v>
    <i name="EFIELD">      0.00000000</i>
   </separator>
  </separator>
  <separator name="grids" >
   <i type="int" name="NGX">    28</i>
   <i type="int" name="NGY">    28</i>
   <i type="int" name="NGZ">   144</i>
   <i type="int" name="NGXF">    56</i>
   <i type="int" name="NGYF">    56</i>
   <i type="int" name="NGZF">   288</i>
   <i type="logical" name="ADDGRID"> F  </i>
  </separator>
  <separator name="ionic" >
   <i type="int" name="NSW">   500</i>
   <i type="int" name="IBRION">     2</i>
   <i type="int" name="MDALGO">     0</i>
   <i type="int" name="ISIF">     2</i>
   <i name="PSTRESS">      0.00000000</i>
   <i name="EDIFFG">     -0.05000000</i>
   <i type="int" name="NFREE">     1</i>
   <i name="POTIM">      0.50000000</i>
   <i name="SMASS">     -3.00000000</i>
   <i name="SCALEE">      1.00000000</i>
  </separator>
  <separator name="ionic md" >
   <i name="TEBEG">      0.00010000</i>
   <i name="TEEND">      0.00010000</i>
   <i type="int" name="NBLOCK">     1</i>
   <i type="int" name="KBLOCK">   500</i>
   <i type="int" name="NPACO">   256</i>
   <i name="APACO">     16.00000000</i>
  </separator>
  <separator name="symmetry" >
   <i type="int" name="ISYM">     2</i>
   <i name="SYMPREC">      0.00001000</i>
  </separator>
  <separator name="dos" >
   <i type="int" name="LORBIT">     0</i>
   <v name="RWIGS">     -1.00000000     -1.00000000</v>
   <i type="int" name="NEDOS">   301</i>
   <i name="EMIN">     10.00000000</i>
   <i name="EMAX">    -10.00000000</i>
   <i name="EFERMI">      0.00000000</i>
  </separator>
  <separator name="writing" >
   <i type="int" name="NWRITE">     2</i>
   <i type="logical" name="LWAVE"> F  </i>
   <i type="logical" name="LDOWNSAMPLE"> F  </i>
   <i type="logical" name="LCHARG"> F  </i>
   <i type="logical" name="LPARD"> F  </i>
   <i type="logical" name="LVTOT"> F  </i>
   <i type="logical" name="LVHAR"> F  </i>
   <i type="logical" name="LELF"> F  </i>
   <i type="logical" name="LOPTICS"> F  </i>
   <v name="STM">      0.00000000      0.00000000      0.00000000      0.00000000      0.00000000      0.00000000      0.00000000</v>
  </separator>
  <separator name="performance" >
   <i type="int" name="NPAR">    28</i>
   <i type="int" name="NSIM">     4</i>
   <i type="int" name="NBLK">    -1</i>
   <i type="logical" name="LPLANE"> T  </i>
   <i type="logical" name="LSCALAPACK"> T  </i>
   <i type="logical" name="LSCAAWARE"> F  </i>
   <i type="logical" name="LSCALU"> F  </i>
   <i type="logical" name="LASYNC"> F  </i>
   <i type="logical" name="LORBITALREAL"> F  </i>
  </separator>
  <separator name="miscellaneous" >
   <i type="int" name="IDIOT">     3</i>
   <i type="int" name="ISPECIAL">     0</i>
   <i type="logical" name="LMUSIC"> F  </i>
   <v name="POMASS">    195.08000000      1.00000000</v>
   <v name="DARWINR">      0.00000000      0.00000000</v>
   <v name="DARWINV">      1.00000000      1.00000000</v>
   <i type="logical" name="LCORR"> T  </i>
  </separator>
  <i type="logical" name="GGA_COMPAT"> T  </i>
  <i type="logical" name="LBERRY"> F  </i>
  <i type="int" name="ICORELEVEL">     0</i>
  <i type="logical" name="LDAU"> F  </i>
  <i type="int" name="I_CONSTRAINED_M">     0</i>
  <separator name="electronic exchange-correlation" >
   <i type="string" name="GGA">PE</i>
   <i type="int" name="VOSKOWN">     0</i>
   <i type="logical" name="LHFCALC"> F  </i>
   <i type="string" name="PRECFOCK"></i>
   <i type="logical" name="LSYMGRAD"> F  </i>
   <i type="logical" name="LHFONE"> F  </i>
   <i type="logical" name="LRHFCALC"> F  </i>
   <i type="logical" name="LTHOMAS"> F  </i>
   <i type="logical" name="LMODELHF"> F  </i>
   <i name="ENCUT4O">     -1.00000000</i>
   <i type="int" name="EXXOEP">     0</i>
   <i type="int" name="FOURORBIT">     0</i>
   <i name="AEXX">      0.00000000</i>
   <i name="HFALPHA">      0.00000000</i>
   <i name="MCALPHA">      0.00000000</i>
   <i name="ALDAX">      1.00000000</i>
   <i name="AGGAX">      1.00000000</i>
   <i name="ALDAC">      1.00000000</i>
   <i name="AGGAC">      1.00000000</i>
   <i type="int" name="NKREDX">     1</i>
   <i type="int" name="NKREDY">     1</i>
   <i type="int" name="NKREDZ">     1</i>
   <i type="logical" name="SHIFTRED"> F  </i>
   <i type="logical" name="ODDONLY"> F  </i>
   <i type="logical" name="EVENONLY"> F  </i>
   <i type="int" name="LMAXFOCK">     0</i>
   <i type="int" name="NMAXFOCKAE">     0</i>
   <i type="logical" name="LFOCKAEDFT"> F  </i>
   <i name="HFSCREEN">      0.00000000</i>
   <i name="HFSCREENC">      0.00000000</i>
   <i type="int" name="NBANDSGWLOW">     0</i>
  </separator>
  <separator name="vdW DFT" >
   <i type="logical" name="LUSE_VDW"> F  </i>
   <i name="Zab_VDW">     -0.84910000</i>
   <i name="PARAM1">      0.12340000</i>
   <i name="PARAM2">      1.00000000</i>
   <i name="PARAM3">      0.00000000</i>
  </separator>
  <separator name="model GW" >
   <i type="int" name="MODEL_GW">     0</i>
   <i name="MODEL_EPS0">     29.08686379</i>
   <i name="MODEL_ALPHA">      1.00000000</i>
  </separator>
  <separator name="linear response parameters" >
   <i type="logical" name="LEPSILON"> F  </i>
   <i type="logical" name="LRPA"> F  </i>
   <i type="logical" name="LNABLA"> F  </i>
   <i type="logical" name="LVEL"> F  </i>
   <i type="int" name="KINTER">     0</i>
   <i name="CSHIFT">      0.10000000</i>
   <i name="OMEGAMAX">     -1.00000000</i>
   <i name="DEG_THRESHOLD">      0.00200000</i>
   <i name="RTIME">     -0.10000000</i>
   <i name="WPLASMAI">      0.00000000</i>
   <v name="DFIELD">      0.00000000      0.00000000      0.00000000</v>
   <v name="WPLASMA">      0.00000000      0.00000000      0.00000000      0.00000000      0.00000000      0.00000000      0.00000000      0.00000000      0.00000000</v>
  </separator>
  <separator name="orbital magnetization" >
   <i type="logical" name="NUCIND"> F  </i>
   <v name="MAGPOS">      0.00000000      0.00000000      0.00000000</v>
   <i type="logical" name="LNICSALL"> T  </i>
   <i type="logical" name="ORBITALMAG"> F  </i>
   <i type="logical" name="LMAGBLOCH"> F  </i>
   <i type="logical" name="LCHIMAG"> F  </i>
   <i type="logical" name="LGAUGE"> T  </i>
   <i type="int" name="MAGATOM">     0</i>
   <v name="MAGDIPOL">      0.00000000      0.00000000      0.00000000</v>
   <v name="AVECCONST">      0.00000000      0.00000000      0.00000000</v>
  </separator>
  <separator name="response functions" >
   <i type="logical" name="LADDER"> F  </i>
   <i type="logical" name="LRPAFORCE"> F  </i>
   <i type="logical" name="LFXC"> F  </i>
   <i type="logical" name="LHARTREE"> T  </i>
   <i type="int" name="IBSE">     0</i>
   <v type="int" name="KPOINT">    -1     0     0     0</v>
   <i type="logical" name="LTCTE"> F  </i>
   <i type="logical" name="LTETE"> F  </i>
   <i type="logical" name="LTRIPLET"> F  </i>
   <i type="logical" name="LFXCEPS"> F  </i>
   <i type="logical" name="LFXHEG"> F  </i>
   <i type="int" name="NATURALO">     2</i>
   <i type="logical" name="L2ORDER"> F  </i>
   <i type="logical" name="LMP2LT"> F  </i>
   <i type="logical" name="LUSEW"> F  </i>
   <i name="ENCUTGW">     -2.00000000</i>
   <i name="ENCUTGWSOFT">     -2.00000000</i>
   <i name="ENCUTLF">     -1.00000000</i>
   <i type="int" name="LMAXMP2">    -1</i>
   <i name="SCISSOR">      0.00000000</i>
   <i type="int" name="NOMEGA">     0</i>
   <i type="int" name="NOMEGAR">     0</i>
   <i type="int" name="NBANDSGW">    -1</i>
   <i type="int" name="NBANDSO">    -1</i>
   <i type="int" name="NBANDSV">    -1</i>
   <i type="int" name="NELM">     1</i>
   <i type="int" name="NELMHF">     1</i>
   <i type="int" name="DIM">     3</i>
   <i type="int" name="ANTIRES">     0</i>
   <i name="OMEGAMAX">    -30.00000000</i>
   <i name="OMEGAMIN">    -30.00000000</i>
   <i name="OMEGATL">   -200.00000000</i>
   <i type="int" name="OMEGAGRID">   140</i>
   <i name="CSHIFT">     -0.10000000</i>
   <i type="logical" name="SELFENERGY"> F  </i>
   <i type="logical" name="LSPECTRAL"> F  </i>
   <i type="logical" name="LSPECTRALGW"> F  </i>
   <i type="logical" name="LSINGLES"> F  </i>
   <i type="logical" name="LFERMIGW"> F  </i>
   <i type="logical" name="ODDONLYGW"> F  </i>
   <i type="logical" name="EVENONLYGW"> F  </i>
   <i type="int" name="NKREDLFX">     1</i>
   <i type="int" name="NKREDLFY">     1</i>
   <i type="int" name="NKREDLFZ">     1</i>
   <i type="int" name="MAXMEM">  2800</i>
   <i type="int" name="TELESCOPE">     0</i>
   <i type="int" name="TAUPAR">     1</i>
   <i type="int" name="OMEGAPAR">    -1</i>
   <i name="LAMBDA">      1.00000000</i>
  </separator>
  <separator name="External order field" >
   <i name="OFIELD_KAPPA">      0.00000000</i>
   <v name="OFIELD_K">      0.00000000      0.00000000      0.00000000</v>
   <i name="OFIELD_Q6_NEAR">      0.00000000</i>
   <i name="OFIELD_Q6_FAR">      0.00000000</i>
   <i name="OFIELD_A">      0.00000000</i>
  </separator>
 </parameters>
 <atominfo>
  <atoms>      17 </atoms>
  <types>       2 </types>
  <array name="atoms" >
   <dimension dim="1">ion</dimension>
   <field type="string">element</field>
   <field type="int">atomtype</field>
   <set>
    <rc><c>Pt</c><c>   1</c></rc>
    <rc><c>Pt</c><c>   1</c></rc>
    <rc><c>Pt</c><c>   1</c></rc>
    <rc><c>Pt</c><c>   1</c></rc>
    <rc><c>Pt</c><c>   1</c></rc>
    <rc><c>Pt</c><c>   1</c></rc>
    <rc><c>Pt</c><c>   1</c></rc>
    <rc><c>Pt</c><c>   1</c></rc>
    <rc><c>Pt</c><c>   1</c></rc>
    <rc><c>Pt</c><c>   1</c></rc>
    <rc><c>Pt</c><c>   1</c></rc>
    <rc><c>Pt</c><c>   1</c></rc>
    <rc><c>Pt</c><c>   1</c></rc>
    <rc><c>Pt</c><c>   1</c></rc>
    <rc><c>Pt</c><c>   1</c></rc>
    <rc><c>Pt</c><c>   1</c></rc>
    <rc><c>H </c><c>   2</c></rc>
   </set>
  </array>
  <array name="atomtypes" >
   <dimension dim="1">type</dimension>
   <field type="int">atomspertype</field>
   <field type="string">element</field>
   <field>mass</field>
   <field>valence</field>
   <field type="string">pseudopotential</field>
   <set>
    <rc><c>  16</c><c>Pt</c><c>    195.08000000</c><c>     10.00000000</c><c>  PAW_PBE Pt 04Feb2005                  </c></rc>
    <rc><c>   1</c><c>H </c><c>      1.00000000</c><c>      1.00000000</c><c>  PAW_PBE H 15Jun2001                   </c></rc>
   </set>
  </array>
 </atominfo>
 <structure name="initialpos" >
  <crystal>
   <varray name="basis" >
    <v>       5.55785930       0.00000000       0.00000000 </v>
    <v>       2.77892965       4.81324734       0.00000000 </v>
    <v>       0.00000000       0.00000000      30.80695967 </v>
   </varray>
   <i name="volume">    824.12780743 </i>
   <varray name="rec_basis" >
    <v>       0.17992539      -0.10387997       0.00000000 </v>
    <v>       0.00000000       0.20775994       0.00000000 </v>
    <v>       0.00000000       0.00000000       0.03246020 </v>
   </varray>
  </crystal>
  <varray name="positions" >
   <v>       0.00000000       0.00000000       0.38952237 </v>
   <v>       0.50000000       0.00000000       0.38952237 </v>
   <v>       0.00000000       0.50000000       0.38952237 </v>
   <v>       0.50000000       0.50000000       0.38952237 </v>
   <v>       0.16666667       0.16666667       0.46317412 </v>
   <v>       0.66666667       0.16666667       0.46317412 </v>
   <v>       0.16666667       0.66666667       0.46317412 </v>
   <v>       0.66666667       0.66666667       0.46317412 </v>
   <v>       0.83333333       0.33333333       0.53682588 </v>
   <v>       0.33333333       0.33333333       0.53682588 </v>
   <v>       0.83333333       0.83333333       0.53682588 </v>
   <v>       0.33333333       0.83333333       0.53682588 </v>
   <v>       0.00000000       0.00000000       0.61047763 </v>
   <v>       0.50000000       0.00000000       0.61047763 </v>
   <v>       0.00000000       0.50000000       0.61047763 </v>
   <v>       0.50000000       0.50000000       0.61047763 </v>
   <v>       0.00000000       0.00000000       0.66890598 </v>
  </varray>
  <varray name="selective"  type="logical" >
   <v type="logical" >  F  F  F </v>
   <v type="logical" >  F  F  F </v>
   <v type="logical" >  F  F  F </v>
   <v type="logical" >  F  F  F </v>
   <v type="logical" >  T  T  T </v>
   <v type="logical" >  T  T  T </v>
   <v type="logical" >  T  T  T </v>
   <v type="logical" >  T  T  T </v>
   <v type="logical" >  T  T  T </v>
   <v type="logical" >  T  T  T </v>
   <v type="logical" >  T  T  T </v>
   <v type="logical" >  T  T  T </v>
   <v type="logical" >  T  T  T </v>
   <v type="logical" >  T  T  T </v>
   <v type="logical" >  T  T  T </v>
   <v type="logical" >  T  T  T </v>
   <v type="logical" >  T  T  T </v>
  </varray>
  <nose>
   <v>      -3.00000000       0.00000000       0.00010000       0.00010000 </v>
  </nose>
 </structure>
 <calculation>
  <scstep>
   <time name="dav">   11.27   11.27</time>
   <time name="total">   11.37   11.38</time>
   <energy>
    <i name="alphaZ">    297.60228517 </i>
    <i name="ewald"> 100622.81813133 </i>
    <i name="hartreedc">-112678.03363999 </i>
    <i name="XCdc">     57.89130994 </i>
    <i name="pawpsdc">  11140.11059429 </i>
    <i name="pawaedc"> -10687.58762492 </i>
    <i name="eentropy">      0.00752999 </i>
    <i name="bandstr">    450.81970476 </i>
    <i name="atom">  11678.11952672 </i>
    <i name="e_fr_energy">    881.74781730 </i>
    <i name="e_wo_entrp">    881.74028731 </i>
    <i name="e_0_energy">    881.74530730 </i>
   </energy>
  </scstep>
  <scstep>
   <time name="dav">   13.31   13.31</time>
   <time name="total">   13.31   13.31</time>
   <energy>
    <i name="e_fr_energy">    -56.51992301 </i>
    <i name="e_wo_entrp">    -56.51000908 </i>
    <i name="e_0_energy">    -56.51661837 </i>
   </energy>
  </scstep>
  <scstep>
   <time name="dav">   12.61   12.62</time>
   <time name="total">   12.61   12.63</time>
   <energy>
    <i name="e_fr_energy">   -101.94492610 </i>
    <i name="e_wo_entrp">   -101.90595995 </i>
    <i name="e_0_energy">   -101.93193738 </i>
   </energy>
  </scstep>
  <scstep>
   <time name="dav">   13.15   13.15</time>
   <time name="total">   13.16   13.16</time>
   <energy>
    <i name="e_fr_energy">   -102.74474027 </i>
    <i name="e_wo_entrp">   -102.70566512 </i>
    <i name="e_0_energy">   -102.73171522 </i>
   </energy>
  </scstep>
  <scstep>
   <time name="dav">   13.84   13.85</time>
   <time name="total">   14.13   14.14</time>
   <energy>
    <i name="e_fr_energy">   -102.76276565 </i>
    <i name="e_wo_entrp">   -102.72368945 </i>
    <i name="e_0_energy">   -102.74974025 </i>
   </energy>
  </scstep>
  <scstep>
   <time name="dav">   12.45   12.46</time>
   <time name="total">   12.82   12.82</time>
   <energy>
    <i name="e_fr_energy">    -98.83438043 </i>
    <i name="e_wo_entrp">    -98.79576509 </i>
    <i name="e_0_energy">    -98.82150865 </i>
   </energy>
  </scstep>
  <scstep>
   <time name="dav">   12.01   12.01</time>
   <time name="total">   12.43   12.44</time>
   <energy>
    <i name="e_fr_energy">   -129.19970495 </i>
    <i name="e_wo_entrp">   -129.21884473 </i>
    <i name="e_0_energy">   -129.20608488 </i>
   </energy>
  </scstep>
  <scstep>
   <time name="dav">   12.58   12.58</time>
   <time name="total">   12.97   12.97</time>
   <energy>
    <i name="e_fr_energy">   -108.90741190 </i>
    <i name="e_wo_entrp">   -108.87582688 </i>
    <i name="e_0_energy">   -108.89688356 </i>
   </energy>
  </scstep>
  <scstep>
   <time name="dav">   12.33   12.33</time>
   <time name="total">   12.73   12.73</time>
   <energy>
    <i name="e_fr_energy">   -104.16414096 </i>
    <i name="e_wo_entrp">   -104.19091784 </i>
    <i name="e_0_energy">   -104.17306658 </i>
   </energy>
  </scstep>
  <scstep>
   <time name="dav">   12.11   12.11</time>
   <time name="total">   12.50   12.50</time>
   <energy>
    <i name="e_fr_energy">   -103.60192811 </i>
    <i name="e_wo_entrp">   -103.56158170 </i>
    <i name="e_0_energy">   -103.58847930 </i>
   </energy>
  </scstep>
  <scstep>
   <time name="dav">   12.32   12.32</time>
   <time name="total">   12.71   12.72</time>
   <energy>
    <i name="e_fr_energy">    -96.87505292 </i>
    <i name="e_wo_entrp">    -96.84067330 </i>
    <i name="e_0_energy">    -96.86359305 </i>
   </energy>
  </scstep>
  <scstep>
   <time name="dav">   11.99   11.99</time>
   <time name="total">   12.39   12.39</time>
   <energy>
    <i name="e_fr_energy">    -96.94044024 </i>
    <i name="e_wo_entrp">    -96.89145590 </i>
    <i name="e_0_energy">    -96.92411213 </i>
   </energy>
  </scstep>
  <scstep>
   <time name="dav">   12.48   12.49</time>
   <time name="total">   12.87   12.88</time>
   <energy>
    <i name="e_fr_energy">    -96.26364180 </i>
    <i name="e_wo_entrp">    -96.23892568 </i>
    <i name="e_0_energy">    -96.25540310 </i>
   </energy>
  </scstep>
  <scstep>
   <time name="dav">   12.83   12.83</time>
   <time name="total">   13.21   13.22</time>
   <energy>
    <i name="e_fr_energy">    -96.21090598 </i>
    <i name="e_wo_entrp">    -96.17806268 </i>
    <i name="e_0_energy">    -96.19995821 </i>
   </energy>
  </scstep>
  <scstep>
   <time name="dav">   13.10   13.10</time>
   <time name="total">   13.49   13.50</time>
   <energy>
    <i name="e_fr_energy">    -96.20385148 </i>
    <i name="e_wo_entrp">    -96.16931040 </i>
    <i name="e_0_energy">    -96.19233778 </i>
   </energy>
  </scstep>
  <scstep>
   <time name="dav">   12.27   12.27</time>
   <time name="total">   12.66   12.66</time>
   <energy>
    <i name="e_fr_energy">    -96.17735021 </i>
    <i name="e_wo_entrp">    -96.14250762 </i>
    <i name="e_0_energy">    -96.16573601 </i>
   </energy>
  </scstep>
  <scstep>
   <time name="dav">   12.00   12.00</time>
   <time name="total">   12.38   12.39</time>
   <energy>
    <i name="e_fr_energy">    -96.17002780 </i>
    <i name="e_wo_entrp">    -96.13572822 </i>
    <i name="e_0_energy">    -96.15859460 </i>
   </energy>
  </scstep>
  <scstep>
   <time name="dav">   11.92   11.92</time>
   <time name="total">   12.31   12.32</time>
   <energy>
    <i name="e_fr_energy">    -96.16968661 </i>
    <i name="e_wo_entrp">    -96.13510264 </i>
    <i name="e_0_energy">    -96.15815862 </i>
   </energy>
  </scstep>
  <scstep>
   <time name="dav">   11.86   11.86</time>
   <time name="total">   12.24   12.25</time>
   <energy>
    <i name="e_fr_energy">    -96.16787423 </i>
    <i name="e_wo_entrp">    -96.13346280 </i>
    <i name="e_0_energy">    -96.15640375 </i>
   </energy>
  </scstep>
  <scstep>
   <time name="dav">   11.58   11.58</time>
   <time name="total">   11.97   11.97</time>
   <energy>
    <i name="e_fr_energy">    -96.16636706 </i>
    <i name="e_wo_entrp">    -96.13202185 </i>
    <i name="e_0_energy">    -96.15491865 </i>
   </energy>
  </scstep>
  <scstep>
   <time name="dav">   11.76   11.76</time>
   <time name="total">   12.15   12.16</time>
   <energy>
    <i name="e_fr_energy">    -96.16663881 </i>
    <i name="e_wo_entrp">    -96.13257427 </i>
    <i name="e_0_energy">    -96.15528396 </i>
   </energy>
  </scstep>
  <scstep>
   <time name="dav">   12.41   12.41</time>
   <time name="total">   12.80   12.81</time>
   <energy>
    <i name="e_fr_energy">    -96.16635343 </i>
    <i name="e_wo_entrp">    -96.13228513 </i>
    <i name="e_0_energy">    -96.15499733 </i>
   </energy>
  </scstep>
  <scstep>
   <time name="dav">   11.42   11.42</time>
   <time name="total">   11.82   11.82</time>
   <energy>
    <i name="e_fr_energy">    -96.16605264 </i>
    <i name="e_wo_entrp">    -96.13190818 </i>
    <i name="e_0_energy">    -96.15467115 </i>
   </energy>
  </scstep>
  <scstep>
   <time name="dav">   11.81   11.82</time>
   <time name="total">   12.21   12.21</time>
   <energy>
    <i name="e_fr_energy">    -96.16604063 </i>
    <i name="e_wo_entrp">    -96.13184919 </i>
    <i name="e_0_energy">    -96.15464348 </i>
   </energy>
  </scstep>
  <scstep>
   <time name="dav">   11.40   11.40</time>
   <time name="total">   11.81   11.82</time>
   <energy>
    <i name="e_fr_energy">    -96.16612307 </i>
    <i name="e_wo_entrp">    -96.13193189 </i>
    <i name="e_0_energy">    -96.15472601 </i>
   </energy>
  </scstep>
  <scstep>
   <time name="dav">    9.49    9.49</time>
   <time name="total">    9.87    9.88</time>
   <energy>
    <i name="e_fr_energy">    -96.16616530 </i>
    <i name="e_wo_entrp">    -96.13197174 </i>
    <i name="e_0_energy">    -96.15476745 </i>
   </energy>
  </scstep>
  <scstep>
   <time name="dav">    9.03    9.03</time>
   <time name="total">    9.42    9.42</time>
   <energy>
    <i name="e_fr_energy">    -96.16624367 </i>
    <i name="e_wo_entrp">    -96.13204089 </i>
    <i name="e_0_energy">    -96.15484275 </i>
   </energy>
  </scstep>
  <scstep>
   <time name="dav">    9.34    9.34</time>
   <time name="total">    9.73    9.74</time>
   <energy>
    <i name="e_fr_energy">    -96.16628618 </i>
    <i name="e_wo_entrp">    -96.13209321 </i>
    <i name="e_0_energy">    -96.15488852 </i>
   </energy>
  </scstep>
  <scstep>
   <time name="dav">    9.02    9.02</time>
   <time name="total">    9.40    9.40</time>
   <energy>
    <i name="e_fr_energy">    -96.16633186 </i>
    <i name="e_wo_entrp">    -96.13213972 </i>
    <i name="e_0_energy">    -96.15493448 </i>
   </energy>
  </scstep>
  <scstep>
   <time name="dav">    9.03    9.03</time>
   <time name="total">    9.43    9.44</time>
   <energy>
    <i name="e_fr_energy">    -96.16636552 </i>
    <i name="e_wo_entrp">    -96.13216941 </i>
    <i name="e_0_energy">    -96.15496682 </i>
   </energy>
  </scstep>
  <scstep>
   <time name="dav">   10.09   10.09</time>
   <time name="total">   10.19   10.19</time>
   <energy>
    <i name="alphaZ">    297.60228517 </i>
    <i name="ewald"> 100622.81813133 </i>
    <i name="hartreedc">-112518.42660252 </i>
    <i name="XCdc">     52.37117492 </i>
    <i name="pawpsdc">  14365.39617175 </i>
    <i name="pawaedc"> -13959.27185964 </i>
    <i name="eentropy">     -0.03419561 </i>
    <i name="bandstr">   -634.74100100 </i>
    <i name="atom">  11678.11952672 </i>
    <i name="e_fr_energy">    -96.16636888 </i>
    <i name="e_wo_entrp">    -96.13217327 </i>
    <i name="e_0_energy">    -96.15497034 </i>
   </energy>
  </scstep>
  <dipole>
   <v name="dipole">      0.00000000       0.00000000      -0.04369032 </v>
   <i name="Tr[quadrupol]">   -949.99181125 </i>
   <i name="Echarged">      0.00000000 </i>
   <i name="Edipol_quadrupol">      0.00000000 </i>
   <i name="Eion">      0.00000000 </i>
  </dipole>
  <structure>
   <crystal>
    <varray name="basis" >
     <v>       5.55785930       0.00000000       0.00000000 </v>
     <v>       2.77892965       4.81324734       0.00000000 </v>
     <v>       0.00000000       0.00000000      30.80695967 </v>
    </varray>
    <i name="volume">    824.12780743 </i>
    <varray name="rec_basis" >
     <v>       0.17992539      -0.10387997       0.00000000 </v>
     <v>       0.00000000       0.20775994       0.00000000 </v>
     <v>       0.00000000       0.00000000       0.03246020 </v>
    </varray>
   </crystal>
   <varray name="positions" >
    <v>       0.00000000       0.00000000       0.38952237 </v>
    <v>       0.50000000       0.00000000       0.38952237 </v>
    <v>       0.00000000       0.50000000       0.38952237 </v>
    <v>       0.50000000       0.50000000       0.38952237 </v>
    <v>       0.16666667       0.16666667       0.46317412 </v>
    <v>       0.66666667       0.16666667       0.46317412 </v>
    <v>       0.16666667       0.66666667       0.46317412 </v>
    <v>       0.66666667       0.66666667       0.46317412 </v>
    <v>       0.83333333       0.33333333       0.53682588 </v>
    <v>       0.33333333       0.33333333       0.53682588 </v>
    <v>       0.83333333       0.83333333       0.53682588 </v>
    <v>       0.33333333       0.83333333       0.53682588 </v>
    <v>       0.00000000       0.00000000       0.61047763 </v>
    <v>       0.50000000       0.00000000       0.61047763 </v>
    <v>       0.00000000       0.50000000       0.61047763 </v>
    <v>       0.50000000       0.50000000       0.61047763 </v>
    <v>       0.00000000       0.00000000       0.66890598 </v>
   </varray>
  </structure>
  <varray name="forces" >
   <v>       0.00000000      -0.00000000      -0.37302350 </v>
   <v>      -0.00000000       0.05572169      -0.40885001 </v>
   <v>       0.04825640      -0.02786085      -0.40885001 </v>
   <v>      -0.04825640      -0.02786085      -0.40885001 </v>
   <v>       0.00787925       0.00454909       0.26495922 </v>
   <v>      -0.00787925       0.00454909       0.26495922 </v>
   <v>       0.00000000      -0.00909818       0.26495922 </v>
   <v>       0.00000000      -0.00000000      -0.05971123 </v>
   <v>       0.00000000      -0.01524086      -0.16365701 </v>
   <v>       0.00000000       0.00000000      -0.17881177 </v>
   <v>       0.01319897       0.00762043      -0.16365701 </v>
   <v>      -0.01319897       0.00762043      -0.16365701 </v>
   <v>       0.00000000       0.00000000       3.20715428 </v>
   <v>      -0.00000000      -0.03938205       0.25641906 </v>
   <v>      -0.03410586       0.01969102       0.25641906 </v>
   <v>       0.03410586       0.01969102       0.25641906 </v>
   <v>       0.00000000      -0.00000000      -2.44222152 </v>
  </varray>
  <varray name="stress" >
   <v>     -14.39042608       0.00000000       0.00000000 </v>
   <v>       0.00000000     -14.39042608       0.00000000 </v>
   <v>       0.00000000       0.00000000       6.46830607 </v>
  </varray>
  <energy>
   <i name="e_fr_energy">    -96.16615932 </i>
   <i name="e_wo_entrp">    -96.15476078 </i>
   <i name="e_0_energy">     -0.03419561 </i>
  </energy>
  <time name="totalsc">  381.07  381.24</time>
 </calculation>
 <calculation>
  <scstep>
   <time name="dav">   10.72   10.72</time>
   <time name="total">   11.12   11.13</time>
   <energy>
    <i name="alphaZ">    297.60228517 </i>
    <i name="ewald"> 100191.88421198 </i>
    <i name="hartreedc">-112087.53124710 </i>
    <i name="XCdc">     52.35070725 </i>
    <i name="pawpsdc">  14365.45334672 </i>
    <i name="pawaedc"> -13959.32841730 </i>
    <i name="eentropy">     -0.03263459 </i>
    <i name="bandstr">   -634.97040538 </i>
    <i name="atom">  11678.11952672 </i>
    <i name="e_fr_energy">    -96.45262653 </i>
    <i name="e_wo_entrp">    -96.41999194 </i>
    <i name="e_0_energy">    -96.44174833 </i>
   </energy>
  </scstep>
  <scstep>
   <time name="dav">   11.84   11.84</time>
   <time name="total">   12.25   12.25</time>
   <energy>
    <i name="e_fr_energy">    -96.60298144 </i>
    <i name="e_wo_entrp">    -96.56962955 </i>
    <i name="e_0_energy">    -96.59186414 </i>
   </energy>
  </scstep>
  <scstep>
   <time name="dav">   12.20   12.21</time>
   <time name="total">   12.59   12.60</time>
   <energy>
    <i name="e_fr_energy">    -96.65605806 </i>
    <i name="e_wo_entrp">    -96.62182663 </i>
    <i name="e_0_energy">    -96.64464758 </i>
   </energy>
  </scstep>
  <scstep>
   <time name="dav">   11.18   11.19</time>
   <time name="total">   11.55   11.55</time>
   <energy>
    <i name="e_fr_energy">    -96.70126327 </i>
    <i name="e_wo_entrp">    -96.67494540 </i>
    <i name="e_0_energy">    -96.69249065 </i>
   </energy>
  </scstep>
  <scstep>
   <time name="dav">   12.47   12.48</time>
   <time name="total">   12.87   12.87</time>
   <energy>
    <i name="e_fr_energy">    -96.58996424 </i>
    <i name="e_wo_entrp">    -96.55668260 </i>
    <i name="e_0_energy">    -96.57887036 </i>
   </energy>
  </scstep>
  <scstep>
   <time name="dav">   12.39   12.40</time>
   <time name="total">   12.80   12.81</time>
   <energy>
    <i name="e_fr_energy">    -96.59449830 </i>
    <i name="e_wo_entrp">    -96.56192378 </i>
    <i name="e_0_energy">    -96.58364013 </i>
   </energy>
  </scstep>
  <scstep>
   <time name="dav">   11.43   11.43</time>
   <time name="total">   11.83   11.83</time>
   <energy>
    <i name="e_fr_energy">    -96.58776630 </i>
    <i name="e_wo_entrp">    -96.55434043 </i>
    <i name="e_0_energy">    -96.57662434 </i>
   </energy>
  </scstep>
  <scstep>
   <time name="dav">   12.86   12.86</time>
   <time name="total">   13.26   13.26</time>
   <energy>
    <i name="e_fr_energy">    -96.58744863 </i>
    <i name="e_wo_entrp">    -96.55446101 </i>
    <i name="e_0_energy">    -96.57645276 </i>
   </energy>
  </scstep>
  <scstep>
   <time name="dav">   12.45   12.46</time>
   <time name="total">   12.85   12.85</time>
   <energy>
    <i name="e_fr_energy">    -96.58725520 </i>
    <i name="e_wo_entrp">    -96.55410804 </i>
    <i name="e_0_energy">    -96.57620615 </i>
   </energy>
  </scstep>
  <scstep>
   <time name="dav">   11.74   11.74</time>
   <time name="total">   12.15   12.16</time>
   <energy>
    <i name="e_fr_energy">    -96.58725526 </i>
    <i name="e_wo_entrp">    -96.55420595 </i>
    <i name="e_0_energy">    -96.57623882 </i>
   </energy>
  </scstep>
  <scstep>
   <time name="dav">   11.83   11.83</time>
   <time name="total">   12.22   12.23</time>
   <energy>
    <i name="e_fr_energy">    -96.58713306 </i>
    <i name="e_wo_entrp">    -96.55386354 </i>
    <i name="e_0_energy">    -96.57604322 </i>
   </energy>
  </scstep>
  <scstep>
   <time name="dav">   10.50   10.50</time>
   <time name="total">   10.59   10.60</time>
   <energy>
    <i name="alphaZ">    297.60228517 </i>
    <i name="ewald"> 100191.88421198 </i>
    <i name="hartreedc">-112088.77471857 </i>
    <i name="XCdc">     52.42684321 </i>
    <i name="pawpsdc">  14346.90959638 </i>
    <i name="pawaedc"> -13940.70701403 </i>
    <i name="eentropy">     -0.03327192 </i>
    <i name="bandstr">   -634.01458770 </i>
    <i name="atom">  11678.11952672 </i>
    <i name="e_fr_energy">    -96.58712876 </i>
    <i name="e_wo_entrp">    -96.55385684 </i>
    <i name="e_0_energy">    -96.57603812 </i>
   </energy>
  </scstep>
  <dipole>
   <v name="dipole">      0.00000000       0.00000000     -65.46114988 </v>
   <i name="Tr[quadrupol]">  -2066.25872948 </i>
   <i name="Echarged">      0.00000000 </i>
   <i name="Edipol_quadrupol">      0.00000000 </i>
   <i name="Eion">      0.00000000 </i>
  </dipole>
  <structure>
   <crystal>
    <varray name="basis" >
     <v>       5.55785930       0.00000000       0.00000000 </v>
     <v>       2.77892965       4.81324734       0.00000000 </v>
     <v>       0.00000000       0.00000000      30.80695967 </v>
    </varray>
    <i name="volume">    824.12780743 </i>
    <varray name="rec_basis" >
     <v>       0.17992539      -0.10387997       0.00000000 </v>
     <v>       0.00000000       0.20775994       0.00000000 </v>
     <v>       0.00000000       0.00000000       0.03246020 </v>
    </varray>
   </crystal>
   <varray name="positions" >
    <v>       0.00000000       0.00000000       0.38952237 </v>
    <v>       0.50000000       0.00000000       0.38952237 </v>
    <v>       0.00000000       0.50000000       0.38952237 </v>
    <v>       0.50000000       0.50000000       0.38952237 </v>
    <v>       0.16671226       0.16671226       0.46358904 </v>
    <v>       0.66657548       0.16671226       0.46358904 </v>
    <v>       0.16671226       0.66657548       0.46358904 </v>
    <v>       0.66666667       0.66666667       0.46308062 </v>
    <v>       0.83340971       0.33318058       0.53656959 </v>
    <v>       0.33333333       0.33333333       0.53654586 </v>
    <v>       0.83340971       0.83340971       0.53656959 </v>
    <v>       0.33318058       0.83340971       0.53656959 </v>
    <v>       0.00000000       0.00000000       0.61549992 </v>
    <v>       0.50019736      -0.00039472       0.61087917 </v>
    <v>      -0.00039472       0.50019736       0.61087917 </v>
    <v>       0.50019736       0.50019736       0.61087917 </v>
    <v>       0.00000000      -0.00000000       0.66508155 </v>
   </varray>
  </structure>
  <varray name="forces" >
   <v>      -0.00000000       0.00000000      -0.28033074 </v>
   <v>      -0.00000000       0.09418851      -0.34594851 </v>
   <v>       0.08156964      -0.04709425      -0.34594851 </v>
   <v>      -0.08156964      -0.04709425      -0.34594851 </v>
   <v>      -0.00470108      -0.00271417       0.02949347 </v>
   <v>       0.00470108      -0.00271417       0.02949347 </v>
   <v>      -0.00000000       0.00542833       0.02949347 </v>
   <v>      -0.00000000       0.00000000      -0.21935576 </v>
   <v>       0.00000000      -0.16648384       0.30731901 </v>
   <v>      -0.00000000       0.00000000       0.15030633 </v>
   <v>       0.14417923       0.08324192       0.30731901 </v>
   <v>      -0.14417923       0.08324192       0.30731901 </v>
   <v>      -0.00000000       0.00000000      -0.56942806 </v>
   <v>      -0.00000000      -0.03957506       0.11918994 </v>
   <v>      -0.03427301       0.01978753       0.11918994 </v>
   <v>       0.03427301       0.01978753       0.11918994 </v>
   <v>      -0.00000000       0.00000000       0.58864650 </v>
  </varray>
  <varray name="stress" >
   <v>     -17.27958595       0.00000000       0.00000000 </v>
   <v>       0.00000000     -17.27958595      -0.00000000 </v>
   <v>       0.00000000       0.00000000      13.00851721 </v>
  </varray>
  <energy>
   <i name="e_fr_energy">    373.85834389 </i>
   <i name="e_wo_entrp">    373.86943453 </i>
   <i name="e_0_energy">     -0.03327192 </i>
  </energy>
  <time name="totalsc">  154.13  154.23</time>
 </calculation>
 <calculation>
  <scstep>
   <time name="dav">   10.88   10.88</time>
   <time name="total">   11.26   11.27</time>
   <energy>
    <i name="alphaZ">    297.60228517 </i>
    <i name="ewald"> 100262.81660985 </i>
    <i name="hartreedc">-112160.07514749 </i>
    <i name="XCdc">     52.42246860 </i>
    <i name="pawpsdc">  14346.49819466 </i>
    <i name="pawaedc"> -13940.29564022 </i>
    <i name="eentropy">     -0.03318323 </i>
    <i name="bandstr">   -633.64370515 </i>
    <i name="atom">  11678.11952672 </i>
    <i name="e_fr_energy">    -96.58859109 </i>
    <i name="e_wo_entrp">    -96.55540786 </i>
    <i name="e_0_energy">    -96.57753001 </i>
   </energy>
  </scstep>
  <scstep>
   <time name="dav">   11.59   11.60</time>
   <time name="total">   11.98   11.98</time>
   <energy>
    <i name="e_fr_energy">    -96.59321573 </i>
    <i name="e_wo_entrp">    -96.55963621 </i>
    <i name="e_0_energy">    -96.58202256 </i>
   </energy>
  </scstep>
  <scstep>
   <time name="dav">   11.60   11.60</time>
   <time name="total">   11.99   12.00</time>
   <energy>
    <i name="e_fr_energy">    -96.59917218 </i>
    <i name="e_wo_entrp">    -96.56746862 </i>
    <i name="e_0_energy">    -96.58860433 </i>
   </energy>
  </scstep>
  <scstep>
   <time name="dav">   11.35   11.35</time>
   <time name="total">   11.73   11.74</time>
   <energy>
    <i name="e_fr_energy">    -96.59252817 </i>
    <i name="e_wo_entrp">    -96.55918139 </i>
    <i name="e_0_energy">    -96.58141258 </i>
   </energy>
  </scstep>
  <scstep>
   <time name="dav">   11.69   11.69</time>
   <time name="total">   12.09   12.10</time>
   <energy>
    <i name="e_fr_energy">    -96.59228347 </i>
    <i name="e_wo_entrp">    -96.55881868 </i>
    <i name="e_0_energy">    -96.58112854 </i>
   </energy>
  </scstep>
  <scstep>
   <time name="dav">   11.55   11.55</time>
   <time name="total">   11.94   11.95</time>
   <energy>
    <i name="e_fr_energy">    -96.59223073 </i>
    <i name="e_wo_entrp">    -96.55914234 </i>
    <i name="e_0_energy">    -96.58120126 </i>
   </energy>
  </scstep>
  <scstep>
   <time name="dav">   11.38   11.38</time>
   <time name="total">   11.78   11.78</time>
   <energy>
    <i name="e_fr_energy">    -96.59216206 </i>
    <i name="e_wo_entrp">    -96.55892392 </i>
    <i name="e_0_energy">    -96.58108268 </i>
   </energy>
  </scstep>
  <scstep>
   <time name="dav">   11.60   11.61</time>
   <time name="total">   12.01   12.01</time>
   <energy>
    <i name="e_fr_energy">    -96.59212412 </i>
    <i name="e_wo_entrp">    -96.55894934 </i>
    <i name="e_0_energy">    -96.58106586 </i>
   </energy>
  </scstep>
  <scstep>
   <time name="dav">   10.69   10.69</time>
   <time name="total">   10.78   10.79</time>
   <energy>
    <i name="alphaZ">    297.60228517 </i>
    <i name="ewald"> 100262.81660985 </i>
    <i name="hartreedc">-112160.30237749 </i>
    <i name="XCdc">     52.40755855 </i>
    <i name="pawpsdc">  14345.82899091 </i>
    <i name="pawaedc"> -13939.62842255 </i>
    <i name="eentropy">     -0.03313194 </i>
    <i name="bandstr">   -633.40316353 </i>
    <i name="atom">  11678.11952672 </i>
    <i name="e_fr_energy">    -96.59212431 </i>
    <i name="e_wo_entrp">    -96.55899237 </i>
    <i name="e_0_energy">    -96.58108033 </i>
   </energy>
  </scstep>
  <dipole>
   <v name="dipole">      0.00000000       0.00000000      -0.03622624 </v>
   <i name="Tr[quadrupol]">   -949.09951397 </i>
   <i name="Echarged">      0.00000000 </i>
   <i name="Edipol_quadrupol">      0.00000000 </i>
   <i name="Eion">      0.00000000 </i>
  </dipole>
  <structure>
   <crystal>
    <varray name="basis" >
     <v>       5.55785930       0.00000000       0.00000000 </v>
     <v>       2.77892965       4.81324734       0.00000000 </v>
     <v>       0.00000000       0.00000000      30.80695967 </v>
    </varray>
    <i name="volume">    824.12780743 </i>
    <varray name="rec_basis" >
     <v>       0.17992539      -0.10387997       0.00000000 </v>
     <v>       0.00000000       0.20775994       0.00000000 </v>
     <v>       0.00000000       0.00000000       0.03246020 </v>
    </varray>
   </crystal>
   <varray name="positions" >
    <v>       0.00000000       0.00000000       0.38952237 </v>
    <v>       0.50000000       0.00000000       0.38952237 </v>
    <v>       0.00000000       0.50000000       0.38952237 </v>
    <v>       0.50000000       0.50000000       0.38952237 </v>
    <v>       0.16670477       0.16670477       0.46352083 </v>
    <v>       0.66659047       0.16670477       0.46352083 </v>
    <v>       0.16670477       0.66659047       0.46352083 </v>
    <v>       0.66666667       0.66666667       0.46309599 </v>
    <v>       0.83339716       0.33320569       0.53661173 </v>
    <v>       0.33333333       0.33333333       0.53659190 </v>
    <v>       0.83339716       0.83339716       0.53661173 </v>
    <v>       0.33320569       0.83339716       0.53661173 </v>
    <v>       0.00000000       0.00000000       0.61467427 </v>
    <v>       0.50016492      -0.00032983       0.61081316 </v>
    <v>      -0.00032983       0.50016492       0.61081316 </v>
    <v>       0.50016492       0.50016492       0.61081316 </v>
    <v>       0.00000000      -0.00000000       0.66571027 </v>
   </varray>
  </structure>
  <varray name="forces" >
   <v>       0.00000000       0.00000000      -0.29638684 </v>
   <v>       0.00000000       0.08844912      -0.35542502 </v>
   <v>       0.07659918      -0.04422456      -0.35542502 </v>
   <v>      -0.07659918      -0.04422456      -0.35542502 </v>
   <v>      -0.00264274      -0.00152578       0.06915023 </v>
   <v>       0.00264274      -0.00152578       0.06915023 </v>
   <v>       0.00000000       0.00305157       0.06915023 </v>
   <v>      -0.00000000       0.00000000      -0.19952005 </v>
   <v>       0.00000000      -0.15167393       0.24133152 </v>
   <v>      -0.00000000       0.00000000       0.09474169 </v>
   <v>       0.13135348       0.07583697       0.24133152 </v>
   <v>      -0.13135348       0.07583697       0.24133152 </v>
   <v>       0.00000000       0.00000000       0.37752473 </v>
   <v>       0.00000000      -0.04031110       0.13806809 </v>
   <v>      -0.03491043       0.02015555       0.13806809 </v>
   <v>       0.03491043       0.02015555       0.13806809 </v>
   <v>      -0.00000000       0.00000000      -0.25573397 </v>
  </varray>
  <varray name="stress" >
   <v>     -16.84844694       0.00000000       0.00000000 </v>
   <v>       0.00000000     -16.84844694      -0.00000000 </v>
   <v>       0.00000000      -0.00000000      10.90656062 </v>
  </varray>
  <energy>
   <i name="e_fr_energy">    -96.59198024 </i>
   <i name="e_wo_entrp">    -96.58093626 </i>
   <i name="e_0_energy">     -0.03313194 </i>
  </energy>
  <time name="totalsc">  113.67  113.76</time>
 </calculation>
 <calculation>
  <scstep>
   <time name="dav">   10.70   10.71</time>
   <time name="total">   11.11   11.12</time>
   <energy>
    <i name="alphaZ">    297.60228517 </i>
    <i name="ewald"> 100237.04005722 </i>
    <i name="hartreedc">-112134.45480302 </i>
    <i name="XCdc">     52.40889197 </i>
    <i name="pawpsdc">  14345.72792905 </i>
    <i name="pawaedc"> -13939.52709706 </i>
    <i name="eentropy">     -0.03317061 </i>
    <i name="bandstr">   -633.47817727 </i>
    <i name="atom">  11678.11952672 </i>
    <i name="e_fr_energy">    -96.59455783 </i>
    <i name="e_wo_entrp">    -96.56138722 </i>
    <i name="e_0_energy">    -96.58350096 </i>
   </energy>
  </scstep>
  <scstep>
   <time name="dav">   11.26   11.26</time>
   <time name="total">   11.66   11.67</time>
   <energy>
    <i name="e_fr_energy">    -96.59505693 </i>
    <i name="e_wo_entrp">    -96.56196412 </i>
    <i name="e_0_energy">    -96.58402599 </i>
   </energy>
  </scstep>
  <scstep>
   <time name="dav">   11.12   11.12</time>
   <time name="total">   11.51   11.52</time>
   <energy>
    <i name="e_fr_energy">    -96.59597976 </i>
    <i name="e_wo_entrp">    -96.56229687 </i>
    <i name="e_0_energy">    -96.58475213 </i>
   </energy>
  </scstep>
  <scstep>
   <time name="dav">   11.14   11.14</time>
   <time name="total">   11.53   11.54</time>
   <energy>
    <i name="e_fr_energy">    -96.59502785 </i>
    <i name="e_wo_entrp">    -96.56200406 </i>
    <i name="e_0_energy">    -96.58401992 </i>
   </energy>
  </scstep>
  <scstep>
   <time name="dav">   11.41   11.49</time>
   <time name="total">   11.82   11.90</time>
   <energy>
    <i name="e_fr_energy">    -96.59499689 </i>
    <i name="e_wo_entrp">    -96.56185116 </i>
    <i name="e_0_energy">    -96.58394832 </i>
   </energy>
  </scstep>
  <scstep>
   <time name="dav">   11.32   11.32</time>
   <time name="total">   11.72   11.73</time>
   <energy>
    <i name="e_fr_energy">    -96.59501213 </i>
    <i name="e_wo_entrp">    -96.56185785 </i>
    <i name="e_0_energy">    -96.58396070 </i>
   </energy>
  </scstep>
  <scstep>
   <time name="dav">    9.05    9.05</time>
   <time name="total">    9.13    9.14</time>
   <energy>
    <i name="alphaZ">    297.60228517 </i>
    <i name="ewald"> 100237.04005722 </i>
    <i name="hartreedc">-112134.57539384 </i>
    <i name="XCdc">     52.41436574 </i>
    <i name="pawpsdc">  14345.55957605 </i>
    <i name="pawaedc"> -13939.35694985 </i>
    <i name="eentropy">     -0.03320486 </i>
    <i name="bandstr">   -633.36527420 </i>
    <i name="atom">  11678.11952672 </i>
    <i name="e_fr_energy">    -96.59501184 </i>
    <i name="e_wo_entrp">    -96.56180698 </i>
    <i name="e_0_energy">    -96.58394355 </i>
   </energy>
  </scstep>
  <dipole>
   <v name="dipole">      0.00000000       0.00000000      -0.04732697 </v>
   <i name="Tr[quadrupol]">   -949.34913164 </i>
   <i name="Echarged">      0.00000000 </i>
   <i name="Edipol_quadrupol">      0.00000000 </i>
   <i name="Eion">      0.00000000 </i>
  </dipole>
  <structure>
   <crystal>
    <varray name="basis" >
     <v>       5.55785930       0.00000000       0.00000000 </v>
     <v>       2.77892965       4.81324734       0.00000000 </v>
     <v>       0.00000000       0.00000000      30.80695967 </v>
    </varray>
    <i name="volume">    824.12780743 </i>
    <varray name="rec_basis" >
     <v>       0.17992539      -0.10387997       0.00000000 </v>
     <v>       0.00000000       0.20775994       0.00000000 </v>
     <v>       0.00000000       0.00000000       0.03246020 </v>
    </varray>
   </crystal>
   <varray name="positions" >
    <v>       0.00000000       0.00000000       0.38952237 </v>
    <v>       0.50000000       0.00000000       0.38952237 </v>
    <v>       0.00000000       0.50000000       0.38952237 </v>
    <v>       0.50000000       0.50000000       0.38952237 </v>
    <v>       0.16670749       0.16670749       0.46354562 </v>
    <v>       0.66658502       0.16670749       0.46354562 </v>
    <v>       0.16670749       0.66658502       0.46354562 </v>
    <v>       0.66666667       0.66666667       0.46309040 </v>
    <v>       0.83340172       0.33319656       0.53659642 </v>
    <v>       0.33333333       0.33333333       0.53657517 </v>
    <v>       0.83340172       0.83340172       0.53659642 </v>
    <v>       0.33319656       0.83340172       0.53659642 </v>
    <v>       0.00000000       0.00000000       0.61497433 </v>
    <v>       0.50017671      -0.00035341       0.61083715 </v>
    <v>      -0.00035341       0.50017671       0.61083715 </v>
    <v>       0.50017671       0.50017671       0.61083715 </v>
    <v>       0.00000000      -0.00000000       0.66548179 </v>
   </varray>
  </structure>
  <varray name="forces" >
   <v>       0.00000000       0.00000000      -0.28944140 </v>
   <v>       0.00000000       0.09051803      -0.35250213 </v>
   <v>       0.07839092      -0.04525902      -0.35250213 </v>
   <v>      -0.07839092      -0.04525902      -0.35250213 </v>
   <v>      -0.00344390      -0.00198834       0.05556513 </v>
   <v>       0.00344390      -0.00198834       0.05556513 </v>
   <v>       0.00000000       0.00397668       0.05556513 </v>
   <v>       0.00000000       0.00000000      -0.20534115 </v>
   <v>       0.00000000      -0.15747380       0.26562722 </v>
   <v>       0.00000000       0.00000000       0.11447131 </v>
   <v>       0.13637631       0.07873690       0.26562722 </v>
   <v>      -0.13637631       0.07873690       0.26562722 </v>
   <v>       0.00000000       0.00000000       0.05114870 </v>
   <v>       0.00000000      -0.04000829       0.13125030 </v>
   <v>      -0.03464819       0.02000414       0.13125030 </v>
   <v>       0.03464819       0.02000414       0.13125030 </v>
   <v>       0.00000000       0.00000000       0.02934097 </v>
  </varray>
  <varray name="stress" >
   <v>     -17.02891378       0.00000000       0.00000000 </v>
   <v>       0.00000000     -17.02891378      -0.00000000 </v>
   <v>       0.00000000      -0.00000000      11.52994631 </v>
  </varray>
  <energy>
   <i name="e_fr_energy">    -96.59476594 </i>
   <i name="e_wo_entrp">    -96.58369765 </i>
   <i name="e_0_energy">     -0.03320486 </i>
  </energy>
  <time name="totalsc">   86.60   86.75</time>
 </calculation>
 <calculation>
  <scstep>
   <time name="dav">   11.50   11.59</time>
   <time name="total">   11.89   11.98</time>
   <energy>
    <i name="alphaZ">    297.60228517 </i>
    <i name="ewald"> 100235.48343202 </i>
    <i name="hartreedc">-112132.94470260 </i>
    <i name="XCdc">     52.41459293 </i>
    <i name="pawpsdc">  14345.54007084 </i>
    <i name="pawaedc"> -13939.33759048 </i>
    <i name="eentropy">     -0.03317649 </i>
    <i name="bandstr">   -633.43945401 </i>
    <i name="atom">  11678.11952672 </i>
    <i name="e_fr_energy">    -96.59501590 </i>
    <i name="e_wo_entrp">    -96.56183942 </i>
    <i name="e_0_energy">    -96.58395707 </i>
   </energy>
  </scstep>
  <scstep>
   <time name="dav">   11.34   11.34</time>
   <time name="total">   11.75   11.75</time>
   <energy>
    <i name="e_fr_energy">    -96.59503316 </i>
    <i name="e_wo_entrp">    -96.56174885 </i>
    <i name="e_0_energy">    -96.58393839 </i>
   </energy>
  </scstep>
  <scstep>
   <time name="dav">    8.77    8.77</time>
   <time name="total">    9.17    9.18</time>
   <energy>
    <i name="e_fr_energy">    -96.59502532 </i>
    <i name="e_wo_entrp">    -96.56187392 </i>
    <i name="e_0_energy">    -96.58397485 </i>
   </energy>
  </scstep>
  <scstep>
   <time name="dav">    9.02    9.02</time>
   <time name="total">    9.41    9.42</time>
   <energy>
    <i name="e_fr_energy">    -96.59501490 </i>
    <i name="e_wo_entrp">    -96.56183539 </i>
    <i name="e_0_energy">    -96.58395507 </i>
   </energy>
  </scstep>
  <scstep>
   <time name="dav">    9.12    9.13</time>
   <time name="total">    9.22    9.22</time>
   <energy>
    <i name="alphaZ">    297.60228517 </i>
    <i name="ewald"> 100235.48343202 </i>
    <i name="hartreedc">-112132.99429600 </i>
    <i name="XCdc">     52.41490546 </i>
    <i name="pawpsdc">  14345.56297739 </i>
    <i name="pawaedc"> -13939.36049827 </i>
    <i name="eentropy">     -0.03319155 </i>
    <i name="bandstr">   -633.39015901 </i>
    <i name="atom">  11678.11952672 </i>
    <i name="e_fr_energy">    -96.59501807 </i>
    <i name="e_wo_entrp">    -96.56182652 </i>
    <i name="e_0_energy">    -96.58395422 </i>
   </energy>
  </scstep>
  <dipole>
   <v name="dipole">      0.00000000       0.00000000      -0.04780659 </v>
   <i name="Tr[quadrupol]">   -949.52994406 </i>
   <i name="Echarged">      0.00000000 </i>
   <i name="Edipol_quadrupol">      0.00000000 </i>
   <i name="Eion">      0.00000000 </i>
  </dipole>
  <structure>
   <crystal>
    <varray name="basis" >
     <v>       5.55785930       0.00000000       0.00000000 </v>
     <v>       2.77892965       4.81324734       0.00000000 </v>
     <v>       0.00000000       0.00000000      30.80695967 </v>
    </varray>
    <i name="volume">    824.12780743 </i>
    <varray name="rec_basis" >
     <v>       0.17992539      -0.10387997       0.00000000 </v>
     <v>       0.00000000       0.20775994       0.00000000 </v>
     <v>       0.00000000       0.00000000       0.03246020 </v>
    </varray>
   </crystal>
   <varray name="positions" >
    <v>       0.00000000       0.00000000       0.38952237 </v>
    <v>       0.50000000       0.00000000       0.38952237 </v>
    <v>       0.00000000       0.50000000       0.38952237 </v>
    <v>       0.50000000       0.50000000       0.38952237 </v>
    <v>       0.16670765       0.16670765       0.46354712 </v>
    <v>       0.66658469       0.16670765       0.46354712 </v>
    <v>       0.16670765       0.66658469       0.46354712 </v>
    <v>       0.66666667       0.66666667       0.46309007 </v>
    <v>       0.83340199       0.33319601       0.53659549 </v>
    <v>       0.33333333       0.33333333       0.53657416 </v>
    <v>       0.83340199       0.83340199       0.53659549 </v>
    <v>       0.33319601       0.83340199       0.53659549 </v>
    <v>       0.00000000       0.00000000       0.61499244 </v>
    <v>       0.50017742      -0.00035484       0.61083860 </v>
    <v>      -0.00035484       0.50017742       0.61083860 </v>
    <v>       0.50017742       0.50017742       0.61083860 </v>
    <v>       0.00000000      -0.00000000       0.66546799 </v>
   </varray>
  </structure>
  <varray name="forces" >
   <v>      -0.00000000      -0.00000000      -0.28923258 </v>
   <v>      -0.00000000       0.09068765      -0.35175651 </v>
   <v>       0.07853781      -0.04534382      -0.35175651 </v>
   <v>      -0.07853781      -0.04534382      -0.35175651 </v>
   <v>      -0.00350439      -0.00202326       0.05372034 </v>
   <v>       0.00350439      -0.00202326       0.05372034 </v>
   <v>      -0.00000000       0.00404652       0.05372034 </v>
   <v>      -0.00000000      -0.00000000      -0.20686490 </v>
   <v>      -0.00000000      -0.15783250       0.26798241 </v>
   <v>      -0.00000000      -0.00000000       0.11676124 </v>
   <v>       0.13668696       0.07891625       0.26798241 </v>
   <v>      -0.13668696       0.07891625       0.26798241 </v>
   <v>      -0.00000000      -0.00000000       0.03030994 </v>
   <v>      -0.00000000      -0.03991872       0.13046604 </v>
   <v>      -0.03457062       0.01995936       0.13046604 </v>
   <v>       0.03457062       0.01995936       0.13046604 </v>
   <v>      -0.00000000      -0.00000000       0.04778950 </v>
  </varray>
  <varray name="stress" >
   <v>     -17.02226930       0.00000000       0.00000000 </v>
   <v>       0.00000000     -17.02226930      -0.00000000 </v>
   <v>       0.00000000      -0.00000000      11.63422169 </v>
  </varray>
  <energy>
   <i name="e_fr_energy">    -96.59476716 </i>
   <i name="e_wo_entrp">    -96.58370331 </i>
   <i name="e_0_energy">     -0.03319155 </i>
  </energy>
  <time name="totalsc">   59.54   59.67</time>
 </calculation>
 <calculation>
  <scstep>
   <time name="dav">   10.88   10.89</time>
   <time name="total">   11.27   11.29</time>
   <energy>
    <i name="alphaZ">    297.60228517 </i>
    <i name="ewald"> 100125.29169461 </i>
    <i name="hartreedc">-112023.14037357 </i>
    <i name="XCdc">     52.37048701 </i>
    <i name="pawpsdc">  14345.58778994 </i>
    <i name="pawaedc"> -13939.38540085 </i>
    <i name="eentropy">     -0.03305528 </i>
    <i name="bandstr">   -633.01664906 </i>
    <i name="atom">  11678.11952672 </i>
    <i name="e_fr_energy">    -96.60369531 </i>
    <i name="e_wo_entrp">    -96.57064003 </i>
    <i name="e_0_energy">    -96.59267688 </i>
   </energy>
  </scstep>
  <scstep>
   <time name="dav">   12.28   12.29</time>
   <time name="total">   12.67   12.68</time>
   <energy>
    <i name="e_fr_energy">    -96.60905891 </i>
    <i name="e_wo_entrp">    -96.57582421 </i>
    <i name="e_0_energy">    -96.59798067 </i>
   </energy>
  </scstep>
  <scstep>
   <time name="dav">   11.91   11.91</time>
   <time name="total">   12.29   12.30</time>
   <energy>
    <i name="e_fr_energy">    -96.61045581 </i>
    <i name="e_wo_entrp">    -96.57786084 </i>
    <i name="e_0_energy">    -96.59959082 </i>
   </energy>
  </scstep>
  <scstep>
   <time name="dav">   11.52   11.52</time>
   <time name="total">   11.91   11.92</time>
   <energy>
    <i name="e_fr_energy">    -96.60911545 </i>
    <i name="e_wo_entrp">    -96.57544076 </i>
    <i name="e_0_energy">    -96.59789055 </i>
   </energy>
  </scstep>
  <scstep>
   <time name="dav">   11.74   11.74</time>
   <time name="total">   12.14   12.15</time>
   <energy>
    <i name="e_fr_energy">    -96.60932453 </i>
    <i name="e_wo_entrp">    -96.57662933 </i>
    <i name="e_0_energy">    -96.59842613 </i>
   </energy>
  </scstep>
  <scstep>
   <time name="dav">   12.38   12.38</time>
   <time name="total">   12.76   12.77</time>
   <energy>
    <i name="e_fr_energy">    -96.60866645 </i>
    <i name="e_wo_entrp">    -96.57552297 </i>
    <i name="e_0_energy">    -96.59761862 </i>
   </energy>
  </scstep>
  <scstep>
   <time name="dav">   12.28   12.28</time>
   <time name="total">   12.69   12.69</time>
   <energy>
    <i name="e_fr_energy">    -96.60859868 </i>
    <i name="e_wo_entrp">    -96.57545618 </i>
    <i name="e_0_energy">    -96.59755118 </i>
   </energy>
  </scstep>
  <scstep>
   <time name="dav">   12.10   12.10</time>
   <time name="total">   12.52   12.52</time>
   <energy>
    <i name="e_fr_energy">    -96.60855789 </i>
    <i name="e_wo_entrp">    -96.57534669 </i>
    <i name="e_0_energy">    -96.59748749 </i>
   </energy>
  </scstep>
  <scstep>
   <time name="dav">    9.26    9.27</time>
   <time name="total">    9.35    9.37</time>
   <energy>
    <i name="alphaZ">    297.60228517 </i>
    <i name="ewald"> 100125.29169461 </i>
    <i name="hartreedc">-112023.34887192 </i>
    <i name="XCdc">     52.37326612 </i>
    <i name="pawpsdc">  14336.08794043 </i>
    <i name="pawaedc"> -13929.81115660 </i>
    <i name="eentropy">     -0.03326201 </i>
    <i name="bandstr">   -632.88998077 </i>
    <i name="atom">  11678.11952672 </i>
    <i name="e_fr_energy">    -96.60855826 </i>
    <i name="e_wo_entrp">    -96.57529625 </i>
    <i name="e_0_energy">    -96.59747092 </i>
   </energy>
  </scstep>
  <dipole>
   <v name="dipole">      0.00000000       0.00000000      -0.04867286 </v>
   <i name="Tr[quadrupol]">   -948.40615876 </i>
   <i name="Echarged">      0.00000000 </i>
   <i name="Edipol_quadrupol">      0.00000000 </i>
   <i name="Eion">      0.00000000 </i>
  </dipole>
  <structure>
   <crystal>
    <varray name="basis" >
     <v>       5.55785930       0.00000000       0.00000000 </v>
     <v>       2.77892965       4.81324734       0.00000000 </v>
     <v>       0.00000000       0.00000000      30.80695967 </v>
    </varray>
    <i name="volume">    824.12780743 </i>
    <varray name="rec_basis" >
     <v>       0.17992539      -0.10387997       0.00000000 </v>
     <v>       0.00000000       0.20775994       0.00000000 </v>
     <v>       0.00000000       0.00000000       0.03246020 </v>
    </varray>
   </crystal>
   <varray name="positions" >
    <v>       0.00000000       0.00000000       0.38952237 </v>
    <v>       0.50000000       0.00000000       0.38952237 </v>
    <v>       0.00000000       0.50000000       0.38952237 </v>
    <v>       0.50000000       0.50000000       0.38952237 </v>
    <v>       0.16668890       0.16668890       0.46363969 </v>
    <v>       0.66662220       0.16668890       0.46363969 </v>
    <v>       0.16668890       0.66662220       0.46363969 </v>
    <v>       0.66666667       0.66666667       0.46277038 </v>
    <v>       0.83417885       0.33164230       0.53700039 </v>
    <v>       0.33333333       0.33333333       0.53674645 </v>
    <v>       0.83417885       0.83417885       0.53700039 </v>
    <v>       0.33164230       0.83417885       0.53700039 </v>
    <v>      -0.00000000      -0.00000000       0.61516185 </v>
    <v>       0.50037826      -0.00075651       0.61104860 </v>
    <v>      -0.00075651       0.50037826       0.61104860 </v>
    <v>       0.50037826       0.50037826       0.61104860 </v>
    <v>      -0.00000000      -0.00000000       0.66544773 </v>
   </varray>
  </structure>
  <varray name="forces" >
   <v>      -0.00000000       0.00000000      -0.27138741 </v>
   <v>      -0.00000000       0.11739344      -0.36359325 </v>
   <v>       0.10166570      -0.05869672      -0.36359325 </v>
   <v>      -0.10166570      -0.05869672      -0.36359325 </v>
   <v>      -0.00723243      -0.00417565       0.08318750 </v>
   <v>       0.00723243      -0.00417565       0.08318750 </v>
   <v>      -0.00000000       0.00835129       0.08318750 </v>
   <v>      -0.00000000       0.00000000       0.04239946 </v>
   <v>      -0.00000000       0.03956886       0.13350410 </v>
   <v>      -0.00000000       0.00000000       0.10315260 </v>
   <v>      -0.03426764      -0.01978443       0.13350410 </v>
   <v>       0.03426764      -0.01978443       0.13350410 </v>
   <v>      -0.00000000       0.00000000      -0.01098885 </v>
   <v>      -0.00000000      -0.00573271       0.13741111 </v>
   <v>      -0.00496468       0.00286636       0.13741111 </v>
   <v>       0.00496468       0.00286636       0.13741111 </v>
   <v>      -0.00000000       0.00000000       0.16529586 </v>
  </varray>
  <varray name="stress" >
   <v>     -17.53983301       0.00000000       0.00000000 </v>
   <v>       0.00000000     -17.53983301       0.00000000 </v>
   <v>       0.00000000       0.00000000      11.19399961 </v>
  </varray>
  <energy>
   <i name="e_fr_energy">    -96.60829818 </i>
   <i name="e_wo_entrp">    -96.59721084 </i>
   <i name="e_0_energy">     -0.03326201 </i>
  </energy>
  <time name="totalsc">  115.70  115.79</time>
 </calculation>
 <calculation>
  <scstep>
   <time name="dav">   10.89   10.90</time>
   <time name="total">   11.29   11.33</time>
   <energy>
    <i name="alphaZ">    297.60228517 </i>
    <i name="ewald"> 100057.06926331 </i>
    <i name="hartreedc">-111955.30411934 </i>
    <i name="XCdc">     52.34764098 </i>
    <i name="pawpsdc">  14336.06478502 </i>
    <i name="pawaedc"> -13929.78789738 </i>
    <i name="eentropy">     -0.03320496 </i>
    <i name="bandstr">   -632.68741886 </i>
    <i name="atom">  11678.11952672 </i>
    <i name="e_fr_energy">    -96.60913933 </i>
    <i name="e_wo_entrp">    -96.57593437 </i>
    <i name="e_0_energy">    -96.59807101 </i>
   </energy>
  </scstep>
  <scstep>
   <time name="dav">   12.11   12.11</time>
   <time name="total">   12.50   12.51</time>
   <energy>
    <i name="e_fr_energy">    -96.61119664 </i>
    <i name="e_wo_entrp">    -96.57791133 </i>
    <i name="e_0_energy">    -96.60010154 </i>
   </energy>
  </scstep>
  <scstep>
   <time name="dav">   11.61   11.61</time>
   <time name="total">   12.02   12.02</time>
   <energy>
    <i name="e_fr_energy">    -96.61173233 </i>
    <i name="e_wo_entrp">    -96.57877344 </i>
    <i name="e_0_energy">    -96.60074603 </i>
   </energy>
  </scstep>
  <scstep>
   <time name="dav">   11.38   11.39</time>
   <time name="total">   11.79   11.80</time>
   <energy>
    <i name="e_fr_energy">    -96.61129441 </i>
    <i name="e_wo_entrp">    -96.57766842 </i>
    <i name="e_0_energy">    -96.60008575 </i>
   </energy>
  </scstep>
  <scstep>
   <time name="dav">   11.68   11.68</time>
   <time name="total">   12.09   12.10</time>
   <energy>
    <i name="e_fr_energy">    -96.61110102 </i>
    <i name="e_wo_entrp">    -96.57799928 </i>
    <i name="e_0_energy">    -96.60006711 </i>
   </energy>
  </scstep>
  <scstep>
   <time name="dav">   12.55   12.55</time>
   <time name="total">   12.94   12.95</time>
   <energy>
    <i name="e_fr_energy">    -96.61107875 </i>
    <i name="e_wo_entrp">    -96.57782951 </i>
    <i name="e_0_energy">    -96.59999567 </i>
   </energy>
  </scstep>
  <scstep>
   <time name="dav">   11.05   11.05</time>
   <time name="total">   11.44   11.45</time>
   <energy>
    <i name="e_fr_energy">    -96.61105266 </i>
    <i name="e_wo_entrp">    -96.57782908 </i>
    <i name="e_0_energy">    -96.59997814 </i>
   </energy>
  </scstep>
  <scstep>
   <time name="dav">    9.26    9.27</time>
   <time name="total">    9.66    9.67</time>
   <energy>
    <i name="e_fr_energy">    -96.61102763 </i>
    <i name="e_wo_entrp">    -96.57772667 </i>
    <i name="e_0_energy">    -96.59992731 </i>
   </energy>
  </scstep>
  <scstep>
   <time name="dav">    8.98    8.98</time>
   <time name="total">    9.08    9.08</time>
   <energy>
    <i name="alphaZ">    297.60228517 </i>
    <i name="ewald"> 100057.06926331 </i>
    <i name="hartreedc">-111955.41591600 </i>
    <i name="XCdc">     52.34948174 </i>
    <i name="pawpsdc">  14330.91123447 </i>
    <i name="pawaedc"> -13924.59211946 </i>
    <i name="eentropy">     -0.03331190 </i>
    <i name="bandstr">   -632.62147155 </i>
    <i name="atom">  11678.11952672 </i>
    <i name="e_fr_energy">    -96.61102749 </i>
    <i name="e_wo_entrp">    -96.57771559 </i>
    <i name="e_0_energy">    -96.59992352 </i>
   </energy>
  </scstep>
  <dipole>
   <v name="dipole">      0.00000000       0.00000000      -0.04898703 </v>
   <i name="Tr[quadrupol]">   -947.70077398 </i>
   <i name="Echarged">      0.00000000 </i>
   <i name="Edipol_quadrupol">      0.00000000 </i>
   <i name="Eion">      0.00000000 </i>
  </dipole>
  <structure>
   <crystal>
    <varray name="basis" >
     <v>       5.55785930       0.00000000       0.00000000 </v>
     <v>       2.77892965       4.81324734       0.00000000 </v>
     <v>       0.00000000       0.00000000      30.80695967 </v>
    </varray>
    <i name="volume">    824.12780743 </i>
    <varray name="rec_basis" >
     <v>       0.17992539      -0.10387997       0.00000000 </v>
     <v>       0.00000000       0.20775994       0.00000000 </v>
     <v>       0.00000000       0.00000000       0.03246020 </v>
    </varray>
   </crystal>
   <varray name="positions" >
    <v>       0.00000000       0.00000000       0.38952237 </v>
    <v>       0.50000000       0.00000000       0.38952237 </v>
    <v>       0.00000000       0.50000000       0.38952237 </v>
    <v>       0.50000000       0.50000000       0.38952237 </v>
    <v>       0.16667727       0.16667727       0.46369710 </v>
    <v>       0.66664545       0.16667727       0.46369710 </v>
    <v>       0.16667727       0.66664545       0.46369710 </v>
    <v>       0.66666667       0.66666667       0.46257216 </v>
    <v>       0.83466054       0.33067892       0.53725145 </v>
    <v>       0.33333333       0.33333333       0.53685329 </v>
    <v>       0.83466054       0.83466054       0.53725145 </v>
    <v>       0.33067892       0.83466054       0.53725145 </v>
    <v>      -0.00000000      -0.00000000       0.61526689 </v>
    <v>       0.50050279      -0.00100557       0.61117881 </v>
    <v>      -0.00100557       0.50050279       0.61117881 </v>
    <v>       0.50050279       0.50050279       0.61117881 </v>
    <v>      -0.00000000      -0.00000000       0.66543516 </v>
   </varray>
  </structure>
  <varray name="forces" >
   <v>      -0.00000000      -0.00000000      -0.26261182 </v>
   <v>      -0.00000000       0.13411147      -0.37253671 </v>
   <v>       0.11614394      -0.06705574      -0.37253671 </v>
   <v>      -0.11614394      -0.06705574      -0.37253671 </v>
   <v>      -0.00943628      -0.00544804       0.10154996 </v>
   <v>       0.00943628      -0.00544804       0.10154996 </v>
   <v>      -0.00000000       0.01089608       0.10154996 </v>
   <v>      -0.00000000      -0.00000000       0.18686554 </v>
   <v>       0.00000000       0.15924727       0.05489944 </v>
   <v>      -0.00000000      -0.00000000       0.09620789 </v>
   <v>      -0.13791218      -0.07962363       0.05489944 </v>
   <v>       0.13791218      -0.07962363       0.05489944 </v>
   <v>      -0.00000000      -0.00000000      -0.03603875 </v>
   <v>      -0.00000000       0.01518620       0.14145427 </v>
   <v>       0.01315163      -0.00759310       0.14145427 </v>
   <v>      -0.01315163      -0.00759310       0.14145427 </v>
   <v>      -0.00000000      -0.00000000       0.23947626 </v>
  </varray>
  <varray name="stress" >
   <v>     -17.81459816       0.00000000       0.00000000 </v>
   <v>       0.00000000     -17.81459816       0.00000000 </v>
   <v>       0.00000000       0.00000000      10.96234475 </v>
  </varray>
  <energy>
   <i name="e_fr_energy">    -96.61076404 </i>
   <i name="e_wo_entrp">    -96.59966007 </i>
   <i name="e_0_energy">     -0.03331190 </i>
  </energy>
  <time name="totalsc">  110.85  111.00</time>
 </calculation>
 <calculation>
  <scstep>
   <time name="dav">   10.64   10.65</time>
   <time name="total">   11.04   11.05</time>
   <energy>
    <i name="alphaZ">    297.60228517 </i>
    <i name="ewald">  99938.14127273 </i>
    <i name="hartreedc">-111837.15920655 </i>
    <i name="XCdc">     52.26578926 </i>
    <i name="pawpsdc">  14330.90069341 </i>
    <i name="pawaedc"> -13924.58146629 </i>
    <i name="eentropy">     -0.03278534 </i>
    <i name="bandstr">   -631.87442788 </i>
    <i name="atom">  11678.11952672 </i>
    <i name="e_fr_energy">    -96.61831877 </i>
    <i name="e_wo_entrp">    -96.58553343 </i>
    <i name="e_0_energy">    -96.60739032 </i>
   </energy>
  </scstep>
  <scstep>
   <time name="dav">   12.22   12.23</time>
   <time name="total">   12.60   12.61</time>
   <energy>
    <i name="e_fr_energy">    -96.62396523 </i>
    <i name="e_wo_entrp">    -96.59116131 </i>
    <i name="e_0_energy">    -96.61303059 </i>
   </energy>
  </scstep>
  <scstep>
   <time name="dav">   11.68   11.68</time>
   <time name="total">   12.08   12.08</time>
   <energy>
    <i name="e_fr_energy">    -96.62463200 </i>
    <i name="e_wo_entrp">    -96.59202334 </i>
    <i name="e_0_energy">    -96.61376245 </i>
   </energy>
  </scstep>
  <scstep>
   <time name="dav">   11.96   11.96</time>
   <time name="total">   12.37   12.37</time>
   <energy>
    <i name="e_fr_energy">    -96.62503625 </i>
    <i name="e_wo_entrp">    -96.59132604 </i>
    <i name="e_0_energy">    -96.61379952 </i>
   </energy>
  </scstep>
  <scstep>
   <time name="dav">   11.95   11.95</time>
   <time name="total">   12.35   12.35</time>
   <energy>
    <i name="e_fr_energy">    -96.62319286 </i>
    <i name="e_wo_entrp">    -96.59017784 </i>
    <i name="e_0_energy">    -96.61218785 </i>
   </energy>
  </scstep>
  <scstep>
   <time name="dav">   11.96   11.97</time>
   <time name="total">   12.37   12.38</time>
   <energy>
    <i name="e_fr_energy">    -96.62316018 </i>
    <i name="e_wo_entrp">    -96.59033653 </i>
    <i name="e_0_energy">    -96.61221896 </i>
   </energy>
  </scstep>
  <scstep>
   <time name="dav">   12.44   12.45</time>
   <time name="total">   12.83   12.83</time>
   <energy>
    <i name="e_fr_energy">    -96.62317688 </i>
    <i name="e_wo_entrp">    -96.59041497 </i>
    <i name="e_0_energy">    -96.61225624 </i>
   </energy>
  </scstep>
  <scstep>
   <time name="dav">   11.38   11.39</time>
   <time name="total">   11.76   11.77</time>
   <energy>
    <i name="e_fr_energy">    -96.62308690 </i>
    <i name="e_wo_entrp">    -96.59026219 </i>
    <i name="e_0_energy">    -96.61214533 </i>
   </energy>
  </scstep>
  <scstep>
   <time name="dav">    9.24    9.25</time>
   <time name="total">    9.63    9.63</time>
   <energy>
    <i name="e_fr_energy">    -96.62306735 </i>
    <i name="e_wo_entrp">    -96.59015564 </i>
    <i name="e_0_energy">    -96.61209678 </i>
   </energy>
  </scstep>
  <scstep>
   <time name="dav">    9.21    9.21</time>
   <time name="total">    9.31    9.32</time>
   <energy>
    <i name="alphaZ">    297.60228517 </i>
    <i name="ewald">  99938.14127273 </i>
    <i name="hartreedc">-111837.39578494 </i>
    <i name="XCdc">     52.26551188 </i>
    <i name="pawpsdc">  14314.87875390 </i>
    <i name="pawaedc"> -13908.43753836 </i>
    <i name="eentropy">     -0.03294932 </i>
    <i name="bandstr">   -631.76414679 </i>
    <i name="atom">  11678.11952672 </i>
    <i name="e_fr_energy">    -96.62306900 </i>
    <i name="e_wo_entrp">    -96.59011968 </i>
    <i name="e_0_energy">    -96.61208590 </i>
   </energy>
  </scstep>
  <dipole>
   <v name="dipole">      0.00000000       0.00000000      -0.05021464 </v>
   <i name="Tr[quadrupol]">   -947.96061285 </i>
   <i name="Echarged">      0.00000000 </i>
   <i name="Edipol_quadrupol">      0.00000000 </i>
   <i name="Eion">      0.00000000 </i>
  </dipole>
  <structure>
   <crystal>
    <varray name="basis" >
     <v>       5.55785930       0.00000000       0.00000000 </v>
     <v>       2.77892965       4.81324734       0.00000000 </v>
     <v>       0.00000000       0.00000000      30.80695967 </v>
    </varray>
    <i name="volume">    824.12780743 </i>
    <varray name="rec_basis" >
[...]
       <r>   -3.2126    1.0000 </r>
       <r>   -3.1960    1.0000 </r>
       <r>   -2.8915    1.0000 </r>
       <r>   -2.8219    1.0000 </r>
       <r>   -2.7907    1.0000 </r>
       <r>   -2.7572    1.0000 </r>
       <r>   -2.7395    1.0000 </r>
       <r>   -2.5506    1.0000 </r>
       <r>   -2.5110    1.0000 </r>
       <r>   -2.4532    1.0000 </r>
       <r>   -2.3621    1.0000 </r>
       <r>   -2.2452    1.0000 </r>
       <r>   -2.2365    1.0000 </r>
       <r>   -2.1321    1.0000 </r>
       <r>   -2.0977    1.0000 </r>
       <r>   -2.0663    1.0000 </r>
       <r>   -1.9611    1.0000 </r>
       <r>   -1.9333    1.0000 </r>
       <r>   -1.8529    1.0000 </r>
       <r>   -1.7998    1.0000 </r>
       <r>   -1.7237    1.0000 </r>
       <r>   -1.6406    1.0000 </r>
       <r>   -1.5856    1.0000 </r>
       <r>   -1.3862    1.0000 </r>
       <r>   -1.3241    1.0001 </r>
       <r>   -1.2298    1.0006 </r>
       <r>   -1.0509    1.0170 </r>
       <r>   -0.8830    1.0108 </r>
       <r>   -0.8424    0.9575 </r>
       <r>   -0.7960    0.8483 </r>
       <r>   -0.7290    0.6061 </r>
       <r>   -0.5862    0.0857 </r>
       <r>   -0.5190   -0.0153 </r>
       <r>   -0.4855   -0.0322 </r>
       <r>   -0.3233   -0.0108 </r>
       <r>    0.3517   -0.0000 </r>
       <r>    0.5516   -0.0000 </r>
       <r>    0.8834   -0.0000 </r>
       <r>    1.5966   -0.0000 </r>
       <r>    1.6323   -0.0000 </r>
       <r>    2.4767   -0.0000 </r>
       <r>    2.7882   -0.0000 </r>
       <r>    3.2923   -0.0000 </r>
       <r>    3.6383   -0.0000 </r>
       <r>    4.0785   -0.0000 </r>
       <r>    4.4234   -0.0000 </r>
       <r>    5.1967    0.0000 </r>
       <r>    5.4330    0.0000 </r>
       <r>    5.6581    0.0000 </r>
       <r>    5.8939    0.0000 </r>
       <r>    5.9278    0.0000 </r>
       <r>    6.3394    0.0000 </r>
       <r>    6.3997    0.0000 </r>
       <r>    6.4284    0.0000 </r>
       <r>    6.7822    0.0000 </r>
       <r>    6.8234    0.0000 </r>
       <r>    6.8763    0.0000 </r>
       <r>    6.9285    0.0000 </r>
       <r>    6.9826    0.0000 </r>
       <r>    7.2866    0.0000 </r>
       <r>    7.5939    0.0000 </r>
      </set>
     </set>
    </set>
   </array>
  </eigenvalues>
  <separator name="orbital magnetization" >
   <v name="MAGDIPOLOUT">      0.00000000      0.00000000      0.00000000</v>
  </separator>
  <dos>
   <i name="efermi">     -0.70371063 </i>
   <total>
    <array>
     <dimension dim="1">gridpoints</dimension>
     <dimension dim="2">spin</dimension>
     <field>energy</field>
     <field>total</field>
     <field>integrated</field>
     <set>
      <set comment="spin 1">
       <r>   -12.0316     0.0000     0.0000 </r>
       <r>   -11.9591     0.0000     0.0000 </r>
       <r>   -11.8867     0.0000     0.0000 </r>
       <r>   -11.8143     0.0000     0.0000 </r>
       <r>   -11.7418     0.0000     0.0000 </r>
       <r>   -11.6694    -0.0000    -0.0000 </r>
       <r>   -11.5969    -0.0000    -0.0000 </r>
       <r>   -11.5245    -0.0000    -0.0000 </r>
       <r>   -11.4521    -0.0000    -0.0000 </r>
       <r>   -11.3796    -0.0000    -0.0000 </r>
       <r>   -11.3072    -0.0000    -0.0000 </r>
       <r>   -11.2348    -0.0000    -0.0000 </r>
       <r>   -11.1623    -0.0000    -0.0000 </r>
       <r>   -11.0899    -0.0000    -0.0000 </r>
       <r>   -11.0174    -0.0000    -0.0000 </r>
       <r>   -10.9450    -0.0000    -0.0000 </r>
       <r>   -10.8726    -0.0000    -0.0000 </r>
       <r>   -10.8001    -0.0000    -0.0000 </r>
       <r>   -10.7277    -0.0000    -0.0000 </r>
       <r>   -10.6553    -0.0000    -0.0000 </r>
       <r>   -10.5828    -0.0003    -0.0000 </r>
       <r>   -10.5104    -0.0016    -0.0001 </r>
       <r>   -10.4379    -0.0061    -0.0006 </r>
       <r>   -10.3655    -0.0166    -0.0018 </r>
       <r>   -10.2931    -0.0277    -0.0038 </r>
       <r>   -10.2206    -0.0117    -0.0046 </r>
       <r>   -10.1482     0.0769     0.0009 </r>
       <r>   -10.0757     0.2571     0.0195 </r>
       <r>   -10.0033     0.4872     0.0548 </r>
       <r>    -9.9309     0.7017     0.1057 </r>
       <r>    -9.8584     0.8600     0.1680 </r>
       <r>    -9.7860     0.9340     0.2356 </r>
       <r>    -9.7136     0.9048     0.3012 </r>
       <r>    -9.6411     0.8081     0.3597 </r>
       <r>    -9.5687     0.7486     0.4139 </r>
       <r>    -9.4962     0.8229     0.4735 </r>
       <r>    -9.4238     0.9935     0.5455 </r>
       <r>    -9.3514     1.0935     0.6247 </r>
       <r>    -9.2789     1.0280     0.6992 </r>
       <r>    -9.2065     0.8816     0.7631 </r>
       <r>    -9.1341     0.7700     0.8188 </r>
       <r>    -9.0616     0.7300     0.8717 </r>
       <r>    -8.9892     0.8058     0.9301 </r>
       <r>    -8.9167     1.0629     1.0071 </r>
       <r>    -8.8443     1.4355     1.1110 </r>
       <r>    -8.7719     1.7278     1.2362 </r>
       <r>    -8.6994     1.8502     1.3702 </r>
       <r>    -8.6270     1.8866     1.5069 </r>
       <r>    -8.5545     1.8844     1.6434 </r>
       <r>    -8.4821     1.7997     1.7738 </r>
       <r>    -8.4097     1.6998     1.8969 </r>
       <r>    -8.3372     1.8015     2.0274 </r>
       <r>    -8.2648     2.1980     2.1866 </r>
       <r>    -8.1924     2.6424     2.3780 </r>
       <r>    -8.1199     2.7648     2.5783 </r>
       <r>    -8.0475     2.5196     2.7608 </r>
       <r>    -7.9750     2.2129     2.9211 </r>
       <r>    -7.9026     2.0824     3.0719 </r>
       <r>    -7.8302     2.1470     3.2275 </r>
       <r>    -7.7577     2.4748     3.4067 </r>
       <r>    -7.6853     3.2316     3.6408 </r>
       <r>    -7.6129     4.3291     3.9544 </r>
       <r>    -7.5404     5.3299     4.3405 </r>
       <r>    -7.4680     5.9839     4.7740 </r>
       <r>    -7.3955     6.6359     5.2547 </r>
       <r>    -7.3231     7.7512     5.8162 </r>
       <r>    -7.2507     9.3142     6.4909 </r>
       <r>    -7.1782    11.0218     7.2893 </r>
       <r>    -7.1058    12.6199     8.2034 </r>
       <r>    -7.0333    13.7462     9.1992 </r>
       <r>    -6.9609    13.9556    10.2101 </r>
       <r>    -6.8885    13.2378    11.1690 </r>
       <r>    -6.8160    12.2711    12.0579 </r>
       <r>    -6.7436    12.0604    12.9315 </r>
       <r>    -6.6712    13.3918    13.9016 </r>
       <r>    -6.5987    16.3540    15.0863 </r>
       <r>    -6.5263    20.1153    16.5434 </r>
       <r>    -6.4538    23.3917    18.2378 </r>
       <r>    -6.3814    25.2881    20.0697 </r>
       <r>    -6.3090    25.6228    21.9257 </r>
       <r>    -6.2365    24.7487    23.7185 </r>
       <r>    -6.1641    23.3819    25.4122 </r>
       <r>    -6.0917    22.2952    27.0272 </r>
       <r>    -6.0192    21.7706    28.6043 </r>
       <r>    -5.9468    21.3605    30.1516 </r>
       <r>    -5.8743    20.3464    31.6254 </r>
       <r>    -5.8019    18.4927    32.9650 </r>
       <r>    -5.7295    16.2849    34.1446 </r>
       <r>    -5.6570    14.5179    35.1963 </r>
       <r>    -5.5846    13.9214    36.2047 </r>
       <r>    -5.5121    14.9745    37.2895 </r>
       <r>    -5.4397    17.4914    38.5565 </r>
       <r>    -5.3673    20.3166    40.0282 </r>
       <r>    -5.2948    21.9406    41.6175 </r>
       <r>    -5.2224    21.8264    43.1986 </r>
       <r>    -5.1500    20.9611    44.7170 </r>
       <r>    -5.0775    20.6507    46.2129 </r>
       <r>    -5.0051    20.9042    47.7271 </r>
       <r>    -4.9326    20.6904    49.2259 </r>
       <r>    -4.8602    19.7551    50.6569 </r>
       <r>    -4.7878    19.2215    52.0493 </r>
       <r>    -4.7153    20.0967    53.5051 </r>
       <r>    -4.6429    22.0508    55.1024 </r>
       <r>    -4.5705    24.1048    56.8485 </r>
       <r>    -4.4980    25.7859    58.7164 </r>
       <r>    -4.4256    27.0878    60.6786 </r>
       <r>    -4.3531    27.8911    62.6989 </r>
       <r>    -4.2807    28.0028    64.7274 </r>
       <r>    -4.2083    27.5733    66.7248 </r>
       <r>    -4.1358    27.2016    68.6952 </r>
       <r>    -4.0634    27.5660    70.6920 </r>
       <r>    -3.9909    28.8920    72.7849 </r>
       <r>    -3.9185    30.8641    75.0206 </r>
       <r>    -3.8461    33.0071    77.4116 </r>
       <r>    -3.7736    34.9314    79.9420 </r>
       <r>    -3.7012    36.3788    82.5772 </r>
       <r>    -3.6288    37.2199    85.2733 </r>
       <r>    -3.5563    37.1845    87.9669 </r>
       <r>    -3.4839    35.7177    90.5542 </r>
       <r>    -3.4114    32.6049    92.9161 </r>
       <r>    -3.3390    28.6305    94.9900 </r>
       <r>    -3.2666    24.9329    96.7961 </r>
       <r>    -3.1941    21.6858    98.3670 </r>
       <r>    -3.1217    18.3275    99.6946 </r>
       <r>    -3.0493    15.3833   100.8089 </r>
       <r>    -2.9768    14.9770   101.8938 </r>
       <r>    -2.9044    18.6479   103.2446 </r>
       <r>    -2.8319    25.0828   105.0616 </r>
       <r>    -2.7595    30.6546   107.2822 </r>
       <r>    -2.6871    32.2229   109.6163 </r>
       <r>    -2.6146    29.4239   111.7477 </r>
       <r>    -2.5422    24.6551   113.5337 </r>
       <r>    -2.4697    21.0977   115.0620 </r>
       <r>    -2.3973    20.3957   116.5394 </r>
       <r>    -2.3249    21.7854   118.1175 </r>
       <r>    -2.2524    23.3161   119.8065 </r>
       <r>    -2.1800    23.8177   121.5318 </r>
       <r>    -2.1076    23.7033   123.2488 </r>
       <r>    -2.0351    24.1525   124.9984 </r>
       <r>    -1.9627    25.7705   126.8651 </r>
       <r>    -1.8902    28.0147   128.8945 </r>
       <r>    -1.8178    29.6394   131.0415 </r>
       <r>    -1.7454    29.5716   133.1836 </r>
       <r>    -1.6729    27.6241   135.1846 </r>
       <r>    -1.6005    24.6536   136.9705 </r>
       <r>    -1.5281    22.1216   138.5730 </r>
       <r>    -1.4556    21.1993   140.1086 </r>
       <r>    -1.3832    21.7797   141.6863 </r>
       <r>    -1.3107    22.6303   143.3256 </r>
       <r>    -1.2383    23.0324   144.9940 </r>
       <r>    -1.1659    23.7784   146.7165 </r>
       <r>    -1.0934    25.9869   148.5989 </r>
       <r>    -1.0210    29.3381   150.7241 </r>
       <r>    -0.9485    32.1660   153.0541 </r>
       <r>    -0.8761    33.2816   155.4650 </r>
       <r>    -0.8037    32.9569   157.8523 </r>
       <r>    -0.7312    31.8300   160.1580 </r>
       <r>    -0.6588    29.8103   162.3174 </r>
       <r>    -0.5864    26.8055   164.2592 </r>
       <r>    -0.5139    23.5200   165.9629 </r>
       <r>    -0.4415    20.4926   167.4474 </r>
       <r>    -0.3690    17.3387   168.7033 </r>
       <r>    -0.2966    13.8917   169.7096 </r>
       <r>    -0.2242    10.9802   170.5050 </r>
       <r>    -0.1517     9.2921   171.1781 </r>
       <r>    -0.0793     8.3933   171.7861 </r>
       <r>    -0.0069     7.3621   172.3194 </r>
       <r>     0.0656     5.8611   172.7440 </r>
       <r>     0.1380     4.3476   173.0589 </r>
       <r>     0.2105     3.4702   173.3103 </r>
       <r>     0.2829     3.4303   173.5588 </r>
       <r>     0.3553     3.8707   173.8392 </r>
       <r>     0.4278     4.3134   174.1516 </r>
       <r>     0.5002     4.6953   174.4917 </r>
       <r>     0.5727     5.2932   174.8752 </r>
       <r>     0.6451     6.0411   175.3128 </r>
       <r>     0.7175     6.3754   175.7746 </r>
       <r>     0.7900     6.0206   176.2107 </r>
       <r>     0.8624     5.4068   176.6024 </r>
       <r>     0.9348     5.0529   176.9684 </r>
       <r>     1.0073     5.0531   177.3344 </r>
       <r>     1.0797     5.2682   177.7160 </r>
       <r>     1.1522     5.4856   178.1134 </r>
       <r>     1.2246     5.3751   178.5028 </r>
       <r>     1.2970     4.7463   178.8466 </r>
       <r>     1.3695     3.8849   179.1280 </r>
       <r>     1.4419     3.4131   179.3752 </r>
       <r>     1.5143     3.7765   179.6488 </r>
       <r>     1.5868     4.7880   179.9956 </r>
       <r>     1.6592     5.7392   180.4114 </r>
       <r>     1.7317     6.2005   180.8605 </r>
       <r>     1.8041     6.4163   181.3253 </r>
       <r>     1.8765     6.5596   181.8005 </r>
       <r>     1.9490     6.2069   182.2501 </r>
       <r>     2.0214     5.1080   182.6201 </r>
       <r>     2.0939     3.8638   182.9000 </r>
       <r>     2.1663     3.2552   183.1358 </r>
       <r>     2.2387     3.3870   183.3811 </r>
       <r>     2.3112     3.9267   183.6656 </r>
       <r>     2.3836     4.7093   184.0067 </r>
       <r>     2.4560     5.6884   184.4188 </r>
       <r>     2.5285     6.5868   184.8959 </r>
       <r>     2.6009     6.9576   185.3999 </r>
       <r>     2.6734     6.5615   185.8752 </r>
       <r>     2.7458     5.6137   186.2818 </r>
       <r>     2.8182     4.6805   186.6209 </r>
       <r>     2.8907     4.2235   186.9268 </r>
       <r>     2.9631     4.2039   187.2313 </r>
       <r>     3.0356     4.2620   187.5401 </r>
       <r>     3.1080     4.2383   187.8471 </r>
       <r>     3.1804     4.3178   188.1599 </r>
       <r>     3.2529     4.6093   188.4938 </r>
       <r>     3.3253     4.7942   188.8410 </r>
       <r>     3.3977     4.5033   189.1673 </r>
       <r>     3.4702     3.9575   189.4539 </r>
       <r>     3.5426     3.7823   189.7279 </r>
       <r>     3.6151     4.1900   190.0314 </r>
       <r>     3.6875     4.7621   190.3764 </r>
       <r>     3.7599     4.9882   190.7377 </r>
       <r>     3.8324     4.7145   191.0792 </r>
       <r>     3.9048     4.1634   191.3808 </r>
       <r>     3.9772     3.7506   191.6525 </r>
       <r>     4.0497     3.8512   191.9315 </r>
       <r>     4.1221     4.5209   192.2590 </r>
       <r>     4.1946     5.3507   192.6466 </r>
       <r>     4.2670     5.7502   193.0631 </r>
       <r>     4.3394     5.4878   193.4606 </r>
       <r>     4.4119     4.8822   193.8143 </r>
       <r>     4.4843     4.4277   194.1350 </r>
       <r>     4.5568     4.3333   194.4489 </r>
       <r>     4.6292     4.4396   194.7705 </r>
       <r>     4.7016     4.4761   195.0947 </r>
       <r>     4.7741     4.3939   195.4130 </r>
       <r>     4.8465     4.4090   195.7324 </r>
       <r>     4.9189     4.6784   196.0713 </r>
       <r>     4.9914     5.2064   196.4484 </r>
       <r>     5.0638     6.1636   196.8949 </r>
       <r>     5.1363     7.8351   197.4625 </r>
       <r>     5.2087    10.0524   198.1907 </r>
       <r>     5.2811    12.0275   199.0619 </r>
       <r>     5.3536    12.8971   199.9962 </r>
       <r>     5.4260    12.3813   200.8930 </r>
       <r>     5.4984    11.0978   201.6969 </r>
       <r>     5.5709    10.1632   202.4331 </r>
       <r>     5.6433    10.1405   203.1677 </r>
       <r>     5.7158    10.5969   203.9353 </r>
       <r>     5.7882    10.9128   204.7258 </r>
       <r>     5.8606    10.9188   205.5168 </r>
       <r>     5.9331    10.6236   206.2863 </r>
       <r>     6.0055    10.1160   207.0191 </r>
       <r>     6.0780     9.7406   207.7247 </r>
       <r>     6.1504     9.7939   208.4341 </r>
       <r>     6.2228    10.2422   209.1761 </r>
       <r>     6.2953    10.8658   209.9632 </r>
       <r>     6.3677    11.3378   210.7845 </r>
       <r>     6.4401    11.3538   211.6069 </r>
       <r>     6.5126    10.9432   212.3996 </r>
       <r>     6.5850    10.4452   213.1562 </r>
       <r>     6.6575    10.1929   213.8946 </r>
       <r>     6.7299    10.2658   214.6382 </r>
       <r>     6.8023    10.4239   215.3933 </r>
       <r>     6.8748    10.4833   216.1527 </r>
       <r>     6.9472    10.6848   216.9267 </r>
       <r>     7.0196    11.2403   217.7409 </r>
       <r>     7.0921    11.8201   218.5971 </r>
       <r>     7.1645    11.9762   219.4647 </r>
       <r>     7.2370    11.6697   220.3100 </r>
       <r>     7.3094    11.1220   221.1157 </r>
       <r>     7.3818    10.5311   221.8785 </r>
       <r>     7.4543     9.8352   222.5910 </r>
       <r>     7.5267     8.5423   223.2097 </r>
       <r>     7.5992     6.2829   223.6649 </r>
       <r>     7.6716     3.5623   223.9229 </r>
       <r>     7.7440     1.3724   224.0223 </r>
       <r>     7.8165     0.1994   224.0368 </r>
       <r>     7.8889    -0.1749   224.0241 </r>
       <r>     7.9613    -0.1799   224.0111 </r>
       <r>     8.0338    -0.0992   224.0039 </r>
       <r>     8.1062    -0.0390   224.0011 </r>
       <r>     8.1787    -0.0115   224.0002 </r>
       <r>     8.2511    -0.0026   224.0000 </r>
       <r>     8.3235    -0.0004   224.0000 </r>
       <r>     8.3960    -0.0001   224.0000 </r>
       <r>     8.4684    -0.0000   224.0000 </r>
       <r>     8.5408    -0.0000   224.0000 </r>
       <r>     8.6133    -0.0000   224.0000 </r>
       <r>     8.6857    -0.0000   224.0000 </r>
       <r>     8.7582    -0.0000   224.0000 </r>
       <r>     8.8306    -0.0000   224.0000 </r>
       <r>     8.9030    -0.0000   224.0000 </r>
       <r>     8.9755    -0.0000   224.0000 </r>
       <r>     9.0479     0.0000   224.0000 </r>
       <r>     9.1204     0.0000   224.0000 </r>
       <r>     9.1928     0.0000   224.0000 </r>
       <r>     9.2652     0.0000   224.0000 </r>
       <r>     9.3377     0.0000   224.0000 </r>
       <r>     9.4101     0.0000   224.0000 </r>
       <r>     9.4825     0.0000   224.0000 </r>
       <r>     9.5550     0.0000   224.0000 </r>
       <r>     9.6274     0.0000   224.0000 </r>
       <r>     9.6999     0.0000   224.0000 </r>
      </set>
     </set>
    </array>
   </total>
  </dos>
 </calculation>
 <structure name="finalpos" >
  <crystal>
   <varray name="basis" >
    <v>       5.55785930       0.00000000       0.00000000 </v>
    <v>       2.77892965       4.81324734       0.00000000 </v>
    <v>       0.00000000       0.00000000      30.80695967 </v>
   </varray>
   <i name="volume">    824.12780743 </i>
   <varray name="rec_basis" >
    <v>       0.17992539      -0.10387997       0.00000000 </v>
    <v>       0.00000000       0.20775994       0.00000000 </v>
    <v>       0.00000000       0.00000000       0.03246020 </v>
   </varray>
  </crystal>
  <varray name="positions" >
   <v>       0.00000000       0.00000000       0.38952237 </v>
   <v>       0.50000000       0.00000000       0.38952237 </v>
   <v>       0.00000000       0.50000000       0.38952237 </v>
   <v>       0.50000000       0.50000000       0.38952237 </v>
   <v>       0.16652883       0.16652883       0.46542487 </v>
   <v>       0.66694234       0.16652883       0.46542487 </v>
   <v>       0.16652883       0.66694234       0.46542487 </v>
   <v>       0.66666667       0.66666667       0.46426737 </v>
   <v>       0.83396869       0.33206261       0.54005199 </v>
   <v>       0.33333333       0.33333333       0.53994492 </v>
   <v>       0.83396869       0.83396869       0.54005199 </v>
   <v>       0.33206261       0.83396869       0.54005199 </v>
   <v>      -0.00000000       0.00000000       0.61904352 </v>
   <v>       0.50048728      -0.00097456       0.61498914 </v>
   <v>      -0.00097456       0.50048728       0.61498914 </v>
   <v>       0.50048728       0.50048728       0.61498914 </v>
   <v>      -0.00000000       0.00000000       0.66953436 </v>
  </varray>
  <varray name="selective"  type="logical" >
   <v type="logical" >  F  F  F </v>
   <v type="logical" >  F  F  F </v>
   <v type="logical" >  F  F  F </v>
   <v type="logical" >  F  F  F </v>
   <v type="logical" >  T  T  T </v>
   <v type="logical" >  T  T  T </v>
   <v type="logical" >  T  T  T </v>
   <v type="logical" >  T  T  T </v>
   <v type="logical" >  T  T  T </v>
   <v type="logical" >  T  T  T </v>
   <v type="logical" >  T  T  T </v>
   <v type="logical" >  T  T  T </v>
   <v type="logical" >  T  T  T </v>
   <v type="logical" >  T  T  T </v>
   <v type="logical" >  T  T  T </v>
   <v type="logical" >  T  T  T </v>
   <v type="logical" >  T  T  T </v>
  </varray>
  <nose>
   <v>      -3.00000000       0.00000000       0.00010000       0.00010000 </v>
  </nose>
 </structure>
</modeling>
