  16  16   0   0
  0.5150799E+02  0.5557859E-09  0.5557859E-09  0.3080696E-08  0.5000000E-15
  1.000000000000000E-004
  CAR 
 unknown system                          
      6.49546722    -12.19332476  301     -0.81565136      1.00000000
    -12.193  0.0000E+00  0.0000E+00
    -12.131  0.0000E+00  0.0000E+00
    -12.069  0.0000E+00  0.0000E+00
    -12.006  0.0000E+00  0.0000E+00
    -11.944  0.0000E+00  0.0000E+00
    -11.882  0.0000E+00  0.0000E+00
    -11.820 -0.4451E-28 -0.2773E-29
    -11.757 -0.6138E-26 -0.3851E-27
    -11.695 -0.6975E-24 -0.4384E-25
    -11.633 -0.6517E-22 -0.4104E-23
    -11.570 -0.5006E-20 -0.3159E-21
    -11.508 -0.3159E-18 -0.2000E-19
    -11.446 -0.1639E-16 -0.1041E-17
    -11.383 -0.6980E-15 -0.4453E-16
    -11.321 -0.2364E-13 -0.1517E-14
    -11.259 -0.6769E-12 -0.4369E-13
    -11.197 -0.1588E-10 -0.1033E-11
    -11.134 -0.3052E-09 -0.2005E-10
    -11.072 -0.4802E-08 -0.3192E-09
    -11.010 -0.6178E-07 -0.4168E-08
    -10.947 -0.6488E-06 -0.4459E-07
    -10.885 -0.5551E-05 -0.3904E-06
    -10.823 -0.3857E-04 -0.2793E-05
    -10.761 -0.2168E-03 -0.1630E-04
    -10.698 -0.9785E-03 -0.7726E-04
    -10.636 -0.3510E-02 -0.2959E-03
    -10.574 -0.9807E-02 -0.9069E-03
    -10.511 -0.2047E-01 -0.2182E-02
    -10.449 -0.2838E-01 -0.3950E-02
    -10.387 -0.1202E-01 -0.4699E-02
    -10.324  0.5891E-01 -0.1029E-02
    -10.262  0.1998E+00  0.1142E-01
    -10.200  0.3907E+00  0.3576E-01
    -10.138  0.5882E+00  0.7240E-01
    -10.075  0.7571E+00  0.1196E+00
    -10.013  0.8785E+00  0.1743E+00
     -9.951  0.9344E+00  0.2325E+00
     -9.888  0.9127E+00  0.2894E+00
     -9.826  0.8330E+00  0.3413E+00
     -9.764  0.7569E+00  0.3884E+00
     -9.701  0.7601E+00  0.4358E+00
     -9.639  0.8705E+00  0.4900E+00
     -9.577  0.1021E+01  0.5536E+00
     -9.515  0.1095E+01  0.6218E+00
     -9.452  0.1041E+01  0.6867E+00
     -9.390  0.9171E+00  0.7438E+00
     -9.328  0.8062E+00  0.7940E+00
     -9.265  0.7429E+00  0.8403E+00
     -9.203  0.7367E+00  0.8862E+00
     -9.141  0.8250E+00  0.9376E+00
     -9.079  0.1043E+01  0.1003E+01
     -9.016  0.1341E+01  0.1086E+01
     -8.954  0.1601E+01  0.1186E+01
     -8.892  0.1745E+01  0.1295E+01
     -8.829  0.1805E+01  0.1407E+01
     -8.767  0.1843E+01  0.1522E+01
     -8.705  0.1855E+01  0.1637E+01
     -8.642  0.1800E+01  0.1750E+01
     -8.580  0.1719E+01  0.1857E+01
     -8.518  0.1742E+01  0.1965E+01
     -8.456  0.1974E+01  0.2088E+01
     -8.393  0.2360E+01  0.2235E+01
     -8.331  0.2683E+01  0.2402E+01
     -8.269  0.2740E+01  0.2573E+01
     -8.206  0.2537E+01  0.2731E+01
     -8.144  0.2267E+01  0.2872E+01
     -8.082  0.2096E+01  0.3003E+01
     -8.019  0.2052E+01  0.3131E+01
     -7.957  0.2156E+01  0.3265E+01
     -7.895  0.2553E+01  0.3424E+01
     -7.833  0.3364E+01  0.3634E+01
     -7.770  0.4432E+01  0.3910E+01
     -7.708  0.5366E+01  0.4244E+01
     -7.646  0.5940E+01  0.4614E+01
     -7.583  0.6368E+01  0.5011E+01
     -7.521  0.7048E+01  0.5450E+01
     -7.459  0.8149E+01  0.5957E+01
     -7.397  0.9574E+01  0.6554E+01
     -7.334  0.1117E+02  0.7250E+01
     -7.272  0.1271E+02  0.8041E+01
     -7.210  0.1380E+02  0.8901E+01
     -7.147  0.1409E+02  0.9779E+01
     -7.085  0.1353E+02  0.1062E+02
     -7.023  0.1258E+02  0.1141E+02
     -6.960  0.1202E+02  0.1215E+02
     -6.898  0.1252E+02  0.1293E+02
     -6.836  0.1435E+02  0.1383E+02
     -6.774  0.1712E+02  0.1489E+02
     -6.711  0.2008E+02  0.1615E+02
     -6.649  0.2255E+02  0.1755E+02
     -6.587  0.2420E+02  0.1906E+02
     -6.524  0.2489E+02  0.2061E+02
     -6.462  0.2460E+02  0.2214E+02
     -6.400  0.2362E+02  0.2361E+02
     -6.338  0.2262E+02  0.2502E+02
     -6.275  0.2209E+02  0.2640E+02
     -6.213  0.2185E+02  0.2776E+02
     -6.151  0.2120E+02  0.2908E+02
     -6.088  0.1969E+02  0.3031E+02
     -6.026  0.1751E+02  0.3140E+02
     -5.964  0.1542E+02  0.3236E+02
     -5.901  0.1415E+02  0.3324E+02
     -5.839  0.1408E+02  0.3412E+02
     -5.777  0.1519E+02  0.3506E+02
     -5.715  0.1709E+02  0.3613E+02
     -5.652  0.1914E+02  0.3732E+02
     -5.590  0.2060E+02  0.3860E+02
     -5.528  0.2099E+02  0.3991E+02
     -5.465  0.2043E+02  0.4118E+02
     -5.403  0.1954E+02  0.4240E+02
     -5.341  0.1901E+02  0.4359E+02
     -5.278  0.1914E+02  0.4478E+02
     -5.216  0.1970E+02  0.4601E+02
     -5.154  0.2026E+02  0.4727E+02
     -5.092  0.2057E+02  0.4855E+02
     -5.029  0.2068E+02  0.4984E+02
     -4.967  0.2073E+02  0.5113E+02
     -4.905  0.2092E+02  0.5243E+02
     -4.842  0.2136E+02  0.5376E+02
     -4.780  0.2219E+02  0.5514E+02
     -4.718  0.2350E+02  0.5661E+02
     -4.656  0.2529E+02  0.5818E+02
     -4.593  0.2716E+02  0.5988E+02
     -4.531  0.2837E+02  0.6164E+02
     -4.469  0.2830E+02  0.6341E+02
     -4.406  0.2724E+02  0.6510E+02
     -4.344  0.2634E+02  0.6674E+02
     -4.282  0.2671E+02  0.6841E+02
     -4.219  0.2841E+02  0.7018E+02
     -4.157  0.3052E+02  0.7208E+02
     -4.095  0.3205E+02  0.7407E+02
     -4.033  0.3273E+02  0.7611E+02
     -3.970  0.3297E+02  0.7817E+02
     -3.908  0.3327E+02  0.8024E+02
     -3.846  0.3379E+02  0.8235E+02
     -3.783  0.3435E+02  0.8449E+02
     -3.721  0.3456E+02  0.8664E+02
     -3.659  0.3402E+02  0.8876E+02
     -3.596  0.3240E+02  0.9078E+02
     -3.534  0.2966E+02  0.9262E+02
     -3.472  0.2626E+02  0.9426E+02
     -3.410  0.2290E+02  0.9569E+02
     -3.347  0.2014E+02  0.9694E+02
     -3.285  0.1820E+02  0.9807E+02
     -3.223  0.1718E+02  0.9914E+02
     -3.160  0.1726E+02  0.1002E+03
     -3.098  0.1868E+02  0.1014E+03
     -3.036  0.2137E+02  0.1027E+03
     -2.974  0.2463E+02  0.1042E+03
     -2.911  0.2732E+02  0.1060E+03
     -2.849  0.2848E+02  0.1077E+03
     -2.787  0.2786E+02  0.1095E+03
     -2.724  0.2600E+02  0.1111E+03
     -2.662  0.2387E+02  0.1126E+03
     -2.600  0.2234E+02  0.1140E+03
     -2.537  0.2175E+02  0.1153E+03
     -2.475  0.2195E+02  0.1167E+03
     -2.413  0.2256E+02  0.1181E+03
     -2.351  0.2315E+02  0.1195E+03
     -2.288  0.2349E+02  0.1210E+03
     -2.226  0.2360E+02  0.1225E+03
     -2.164  0.2382E+02  0.1239E+03
     -2.101  0.2446E+02  0.1255E+03
     -2.039  0.2557E+02  0.1271E+03
     -1.977  0.2691E+02  0.1287E+03
     -1.914  0.2794E+02  0.1305E+03
     -1.852  0.2805E+02  0.1322E+03
     -1.790  0.2708E+02  0.1339E+03
     -1.728  0.2559E+02  0.1355E+03
     -1.665  0.2430E+02  0.1370E+03
     -1.603  0.2343E+02  0.1385E+03
     -1.541  0.2275E+02  0.1399E+03
     -1.478  0.2217E+02  0.1413E+03
     -1.416  0.2203E+02  0.1427E+03
     -1.354  0.2270E+02  0.1441E+03
     -1.292  0.2408E+02  0.1456E+03
     -1.229  0.2572E+02  0.1472E+03
     -1.167  0.2738E+02  0.1489E+03
     -1.105  0.2910E+02  0.1507E+03
     -1.042  0.3083E+02  0.1526E+03
     -0.980  0.3223E+02  0.1546E+03
     -0.918  0.3297E+02  0.1567E+03
     -0.855  0.3291E+02  0.1587E+03
     -0.793  0.3183E+02  0.1607E+03
     -0.731  0.2954E+02  0.1625E+03
     -0.669  0.2627E+02  0.1642E+03
     -0.606  0.2276E+02  0.1656E+03
     -0.544  0.1965E+02  0.1668E+03
     -0.482  0.1694E+02  0.1679E+03
     -0.419  0.1432E+02  0.1688E+03
     -0.357  0.1174E+02  0.1695E+03
     -0.295  0.9454E+01  0.1701E+03
     -0.232  0.7733E+01  0.1706E+03
     -0.170  0.6662E+01  0.1710E+03
     -0.108  0.6218E+01  0.1714E+03
     -0.046  0.6237E+01  0.1718E+03
      0.017  0.6312E+01  0.1722E+03
      0.079  0.6021E+01  0.1725E+03
      0.141  0.5360E+01  0.1729E+03
      0.204  0.4785E+01  0.1732E+03
      0.266  0.4675E+01  0.1735E+03
      0.328  0.4876E+01  0.1738E+03
      0.390  0.4881E+01  0.1741E+03
      0.453  0.4427E+01  0.1743E+03
      0.515  0.3793E+01  0.1746E+03
      0.577  0.3538E+01  0.1748E+03
      0.640  0.3994E+01  0.1750E+03
      0.702  0.5016E+01  0.1754E+03
      0.764  0.6145E+01  0.1757E+03
      0.827  0.6909E+01  0.1762E+03
      0.889  0.7043E+01  0.1766E+03
      0.951  0.6580E+01  0.1770E+03
      1.013  0.5794E+01  0.1774E+03
      1.076  0.4999E+01  0.1777E+03
      1.138  0.4370E+01  0.1780E+03
      1.200  0.3945E+01  0.1782E+03
      1.263  0.3730E+01  0.1784E+03
      1.325  0.3754E+01  0.1787E+03
      1.387  0.4013E+01  0.1789E+03
      1.449  0.4416E+01  0.1792E+03
      1.512  0.4818E+01  0.1795E+03
      1.574  0.5156E+01  0.1798E+03
      1.636  0.5498E+01  0.1802E+03
      1.699  0.5885E+01  0.1805E+03
      1.761  0.6121E+01  0.1809E+03
      1.823  0.5888E+01  0.1813E+03
      1.886  0.5156E+01  0.1816E+03
      1.948  0.4371E+01  0.1819E+03
      2.010  0.4119E+01  0.1821E+03
      2.072  0.4588E+01  0.1824E+03
      2.135  0.5390E+01  0.1827E+03
      2.197  0.5918E+01  0.1831E+03
      2.259  0.5884E+01  0.1835E+03
      2.322  0.5517E+01  0.1838E+03
      2.384  0.5210E+01  0.1842E+03
      2.446  0.5046E+01  0.1845E+03
      2.509  0.4728E+01  0.1848E+03
      2.571  0.4016E+01  0.1850E+03
      2.633  0.3150E+01  0.1852E+03
      2.695  0.2751E+01  0.1854E+03
      2.758  0.3300E+01  0.1856E+03
      2.820  0.4677E+01  0.1859E+03
      2.882  0.6155E+01  0.1863E+03
      2.945  0.6868E+01  0.1867E+03
      3.007  0.6427E+01  0.1871E+03
      3.069  0.5180E+01  0.1874E+03
      3.131  0.3877E+01  0.1877E+03
      3.194  0.3114E+01  0.1878E+03
      3.256  0.3033E+01  0.1880E+03
      3.318  0.3398E+01  0.1882E+03
      3.381  0.3842E+01  0.1885E+03
      3.443  0.4105E+01  0.1887E+03
      3.505  0.4119E+01  0.1890E+03
      3.568  0.3907E+01  0.1892E+03
      3.630  0.3508E+01  0.1895E+03
      3.692  0.3099E+01  0.1897E+03
      3.754  0.3029E+01  0.1898E+03
      3.817  0.3507E+01  0.1901E+03
      3.879  0.4267E+01  0.1903E+03
      3.941  0.4712E+01  0.1906E+03
      4.004  0.4420E+01  0.1909E+03
      4.066  0.3492E+01  0.1911E+03
      4.128  0.2433E+01  0.1913E+03
      4.191  0.1738E+01  0.1914E+03
      4.253  0.1568E+01  0.1915E+03
      4.315  0.1745E+01  0.1916E+03
      4.377  0.1955E+01  0.1917E+03
      4.440  0.1933E+01  0.1918E+03
      4.502  0.1577E+01  0.1919E+03
      4.564  0.1000E+01  0.1920E+03
      4.627  0.4391E+00  0.1920E+03
      4.689  0.7511E-01  0.1920E+03
      4.751 -0.6863E-01  0.1920E+03
      4.813 -0.7834E-01  0.1920E+03
      4.876 -0.4648E-01  0.1920E+03
      4.938 -0.1962E-01  0.1920E+03
      5.000 -0.6358E-02  0.1920E+03
      5.063 -0.1631E-02  0.1920E+03
      5.125 -0.3362E-03  0.1920E+03
      5.187 -0.5615E-04  0.1920E+03
      5.250 -0.7637E-05  0.1920E+03
      5.312 -0.8486E-06  0.1920E+03
      5.374 -0.7721E-07  0.1920E+03
      5.436 -0.5760E-08  0.1920E+03
      5.499 -0.3527E-09  0.1920E+03
      5.561 -0.1774E-10  0.1920E+03
      5.623 -0.7335E-12  0.1920E+03
      5.686 -0.2510E-13  0.1920E+03
      5.748 -0.5941E-15  0.1920E+03
      5.810  0.0000E+00  0.1920E+03
      5.873  0.0000E+00  0.1920E+03
      5.935  0.0000E+00  0.1920E+03
      5.997  0.0000E+00  0.1920E+03
      6.059  0.0000E+00  0.1920E+03
      6.122  0.0000E+00  0.1920E+03
      6.184  0.0000E+00  0.1920E+03
      6.246  0.0000E+00  0.1920E+03
      6.309  0.0000E+00  0.1920E+03
      6.371  0.0000E+00  0.1920E+03
      6.433  0.0000E+00  0.1920E+03
      6.495  0.0000E+00  0.1920E+03
