   16   16    1    1
  0.5150799E+02  0.5557859E-09  0.5557859E-09  0.3080696E-08  0.5000000E-15
  1.000000000000000E-004
  CAR 
 unknown system                          
    160     52     96
 
  0.6250000E-01  0.6250000E-01  0.0000000E+00  0.2083333E-01
    1      -10.193325   1.000000
    2       -8.921948   1.000000
    3       -7.857804   1.000000
    4       -7.739978   1.000000
    5       -7.464938   1.000000
    6       -7.442807   1.000000
    7       -7.433581   1.000000
    8       -7.311466   1.000000
    9       -7.298957   1.000000
   10       -7.285698   1.000000
   11       -6.841761   1.000000
   12       -6.833067   1.000000
   13       -6.828232   1.000000
   14       -6.796676   1.000000
   15       -6.785527   1.000000
   16       -6.596434   1.000000
   17       -6.561802   1.000000
   18       -6.540122   1.000000
   19       -6.482569   1.000000
   20       -5.803738   1.000000
   21       -5.793112   1.000000
   22       -5.686974   1.000000
   23       -4.935010   1.000000
   24       -4.916968   1.000000
   25       -4.810654   1.000000
   26       -4.682403   1.000000
   27       -4.667619   1.000000
   28       -4.653810   1.000000
   29       -4.612005   1.000000
   30       -4.529667   1.000000
   31       -4.374994   1.000000
   32       -4.330457   1.000000
   33       -4.211107   1.000000
   34       -4.200777   1.000000
   35       -4.057600   1.000000
   36       -4.030980   1.000000
   37       -3.998901   1.000000
   38       -3.982323   1.000000
   39       -3.956421   1.000000
   40       -3.849981   1.000000
   41       -3.717450   1.000000
   42       -3.687088   1.000000
   43       -3.504402   1.000000
   44       -3.475511   1.000000
   45       -3.394074   1.000000
   46       -3.193774   1.000000
   47       -3.120850   1.000000
   48       -2.957361   1.000000
   49       -2.894406   1.000000
   50       -2.824567   1.000000
   51       -2.716886   1.000000
   52       -2.359595   1.000000
   53       -2.345330   1.000000
   54       -2.143607   1.000000
   55       -2.116821   1.000000
   56       -1.877516   1.000000
   57       -1.816107   1.000000
   58       -1.707207   1.000000
   59       -1.660615   1.000000
   60       -1.590873   1.000000
   61       -1.535542   1.000002
   62       -1.489387   1.000010
   63       -1.317001   1.001124
   64       -1.181620   1.013311
   65       -1.138461   1.022417
   66       -1.098162   1.031304
   67       -1.064220   1.035409
   68       -1.003108   1.017335
   69       -0.949590   0.948845
   70       -0.901374   0.828410
   71       -0.821539   0.524901
   72       -0.786821   0.379402
   73       -0.772016   0.320145
   74       -0.744883   0.220324
   75       -0.709274   0.112894
   76       -0.703834   0.099191
   77       -0.670087   0.030788
   78       -0.533758  -0.031421
   79       -0.526515  -0.029990
   80       -0.495463  -0.023022
   81       -0.367143  -0.003382
   82       -0.199363  -0.000059
   83       -0.083597  -0.000001
   84       -0.011604  -0.000000
   85        0.027131  -0.000000
   86        0.066093  -0.000000
   87        0.319769  -0.000000
   88        0.444642  -0.000000
   89        1.194845  -0.000000
   90        1.484286  -0.000000
   91        1.623873  -0.000000
   92        1.625855  -0.000000
   93        1.729006  -0.000000
   94        1.804019  -0.000000
   95        2.575047  -0.000000
   96        2.587320  -0.000000
 
  0.0000000E+00  0.6250000E-01  0.0000000E+00  0.1041667E-01
    1      -10.193322   1.000000
    2       -8.921947   1.000000
    3       -7.857805   1.000000
    4       -7.739968   1.000000
    5       -7.465552   1.000000
    6       -7.439366   1.000000
    7       -7.436364   1.000000
    8       -7.311019   1.000000
    9       -7.299259   1.000000
   10       -7.285861   1.000000
   11       -6.841656   1.000000
   12       -6.834931   1.000000
   13       -6.826337   1.000000
   14       -6.797878   1.000000
   15       -6.784154   1.000000
   16       -6.598776   1.000000
   17       -6.564433   1.000000
   18       -6.532532   1.000000
   19       -6.485558   1.000000
   20       -5.802200   1.000000
   21       -5.794428   1.000000
   22       -5.687222   1.000000
   23       -4.928460   1.000000
   24       -4.923054   1.000000
   25       -4.810616   1.000000
   26       -4.690474   1.000000
   27       -4.661450   1.000000
   28       -4.652704   1.000000
   29       -4.612130   1.000000
   30       -4.529080   1.000000
   31       -4.375107   1.000000
   32       -4.330421   1.000000
   33       -4.213316   1.000000
   34       -4.199086   1.000000
   35       -4.055911   1.000000
   36       -4.033352   1.000000
   37       -3.990990   1.000000
   38       -3.985709   1.000000
   39       -3.960194   1.000000
   40       -3.847830   1.000000
   41       -3.717737   1.000000
   42       -3.687663   1.000000
   43       -3.508397   1.000000
   44       -3.473793   1.000000
   45       -3.393459   1.000000
   46       -3.170617   1.000000
   47       -3.150375   1.000000
   48       -2.941624   1.000000
   49       -2.922362   1.000000
   50       -2.782099   1.000000
   51       -2.740525   1.000000
   52       -2.354239   1.000000
   53       -2.352202   1.000000
   54       -2.130347   1.000000
   55       -2.122084   1.000000
   56       -1.850532   1.000000
   57       -1.848648   1.000000
   58       -1.692814   1.000000
   59       -1.661878   1.000000
   60       -1.586924   1.000000
   61       -1.567574   1.000001
   62       -1.510571   1.000005
   63       -1.284477   1.002258
   64       -1.155146   1.018658
   65       -1.119265   1.026839
   66       -1.109740   1.028947
   67       -1.037842   1.033140
   68       -1.024262   1.029038
   69       -1.002089   1.016584
   70       -0.910273   0.854972
   71       -0.809155   0.472528
   72       -0.796853   0.420845
   73       -0.752620   0.247410
   74       -0.743439   0.215405
   75       -0.705694   0.103791
   76       -0.699752   0.089398
   77       -0.679529   0.047077
   78       -0.533364  -0.031346
   79       -0.519327  -0.028463
   80       -0.494555  -0.022813
   81       -0.353608  -0.002591
   82       -0.197399  -0.000056
   83       -0.110953  -0.000004
   84       -0.027392  -0.000000
   85        0.029060  -0.000000
   86        0.073132  -0.000000
   87        0.369400  -0.000000
   88        0.408675  -0.000000
   89        1.193644  -0.000000
   90        1.486325  -0.000000
   91        1.611871  -0.000000
   92        1.635537  -0.000000
   93        1.764188  -0.000000
   94        1.769989  -0.000000
   95        2.580345  -0.000000
   96        2.583066  -0.000000
 
  0.1875000E+00  0.6250000E-01  0.0000000E+00  0.2083333E-01
    1       -9.989312   1.000000
    2       -8.720402   1.000000
    3       -7.652442   1.000000
    4       -7.546220   1.000000
    5       -7.446047   1.000000
    6       -7.368265   1.000000
    7       -7.249883   1.000000
    8       -7.229508   1.000000
    9       -7.180817   1.000000
   10       -7.113453   1.000000
   11       -6.750012   1.000000
   12       -6.731795   1.000000
   13       -6.722472   1.000000
   14       -6.719993   1.000000
   15       -6.646485   1.000000
   16       -6.487941   1.000000
   17       -6.442023   1.000000
   18       -6.383253   1.000000
   19       -6.307872   1.000000
   20       -5.747887   1.000000
   21       -5.728070   1.000000
   22       -5.631848   1.000000
   23       -4.981353   1.000000
   24       -4.907842   1.000000
   25       -4.852544   1.000000
   26       -4.725676   1.000000
   27       -4.668719   1.000000
   28       -4.591438   1.000000
   29       -4.584142   1.000000
   30       -4.556169   1.000000
   31       -4.477194   1.000000
   32       -4.214587   1.000000
   33       -4.182172   1.000000
   34       -4.142790   1.000000
   35       -4.104918   1.000000
   36       -4.045798   1.000000
   37       -4.020848   1.000000
   38       -3.987294   1.000000
   39       -3.924419   1.000000
   40       -3.867824   1.000000
   41       -3.791531   1.000000
   42       -3.657111   1.000000
   43       -3.634010   1.000000
   44       -3.553737   1.000000
   45       -3.528154   1.000000
   46       -3.477222   1.000000
   47       -3.304272   1.000000
   48       -3.114637   1.000000
   49       -2.986383   1.000000
   50       -2.836043   1.000000
   51       -2.673338   1.000000
   52       -2.484005   1.000000
   53       -2.426116   1.000000
   54       -2.349620   1.000000
   55       -2.142131   1.000000
   56       -2.045409   1.000000
   57       -1.989000   1.000000
   58       -1.936331   1.000000
   59       -1.848932   1.000000
   60       -1.803292   1.000000
   61       -1.721793   1.000000
   62       -1.711624   1.000000
   63       -1.650231   1.000000
   64       -1.560846   1.000001
   65       -1.542411   1.000002
   66       -1.442201   1.000044
   67       -1.293373   1.001877
   68       -1.227751   1.006543
   69       -1.161903   1.017206
   70       -1.099655   1.031017
   71       -1.057958   1.035431
   72       -0.993123   1.009147
   73       -0.970325   0.982917
   74       -0.927027   0.899725
   75       -0.856828   0.670203
   76       -0.846972   0.630742
   77       -0.830379   0.562131
   78       -0.782607   0.362270
   79       -0.698767   0.087099
   80       -0.653847   0.007680
   81       -0.591075  -0.033629
   82       -0.470530  -0.017446
   83       -0.364067  -0.003187
   84       -0.298008  -0.000774
   85       -0.196001  -0.000053
   86        0.175467  -0.000000
   87        0.258970  -0.000000
   88        0.807363  -0.000000
   89        0.842337  -0.000000
   90        1.091432  -0.000000
   91        1.280276  -0.000000
   92        1.615438  -0.000000
   93        2.134070  -0.000000
   94        2.516206  -0.000000
   95        3.007628  -0.000000
   96        3.362670  -0.000000
 
  0.1250000E+00  0.1875000E+00  0.0000000E+00  0.2083333E-01
    1       -9.989299   1.000000
    2       -8.720400   1.000000
    3       -7.652444   1.000000
    4       -7.546186   1.000000
    5       -7.446153   1.000000
    6       -7.367896   1.000000
    7       -7.250050   1.000000
    8       -7.229126   1.000000
    9       -7.180808   1.000000
   10       -7.113772   1.000000
   11       -6.750092   1.000000
   12       -6.732602   1.000000
   13       -6.725738   1.000000
   14       -6.714582   1.000000
   15       -6.648166   1.000000
   16       -6.493243   1.000000
   17       -6.433498   1.000000
   18       -6.384599   1.000000
   19       -6.309670   1.000000
   20       -5.745585   1.000000
   21       -5.729309   1.000000
   22       -5.633037   1.000000
   23       -4.977660   1.000000
   24       -4.911532   1.000000
   25       -4.851361   1.000000
   26       -4.729176   1.000000
   27       -4.668081   1.000000
   28       -4.596509   1.000000
   29       -4.582348   1.000000
   30       -4.549259   1.000000
   31       -4.480023   1.000000
   32       -4.218174   1.000000
   33       -4.181371   1.000000
   34       -4.134019   1.000000
   35       -4.110511   1.000000
   36       -4.041395   1.000000
   37       -4.008528   1.000000
   38       -3.992010   1.000000
   39       -3.932884   1.000000
   40       -3.868707   1.000000
   41       -3.795765   1.000000
   42       -3.653027   1.000000
   43       -3.626946   1.000000
   44       -3.555426   1.000000
   45       -3.538916   1.000000
   46       -3.480822   1.000000
   47       -3.286398   1.000000
   48       -3.151921   1.000000
   49       -2.954374   1.000000
   50       -2.833703   1.000000
   51       -2.685594   1.000000
   52       -2.475101   1.000000
   53       -2.439372   1.000000
   54       -2.317785   1.000000
   55       -2.162743   1.000000
   56       -2.029344   1.000000
   57       -2.007502   1.000000
   58       -1.894980   1.000000
   59       -1.875942   1.000000
   60       -1.813482   1.000000
   61       -1.764231   1.000000
   62       -1.698908   1.000000
   63       -1.645326   1.000000
   64       -1.569141   1.000001
   65       -1.523895   1.000003
   66       -1.452059   1.000033
   67       -1.281862   1.002382
   68       -1.205777   1.009347
   69       -1.159752   1.017663
   70       -1.076829   1.034551
   71       -1.059113   1.035449
   72       -1.029303   1.030837
   73       -0.965682   0.976173
   74       -0.954310   0.957511
   75       -0.861413   0.688127
   76       -0.838132   0.594461
   77       -0.803456   0.448503
   78       -0.767429   0.302383
   79       -0.741914   0.210256
   80       -0.640746  -0.006734
   81       -0.566932  -0.035405
   82       -0.482185  -0.019992
   83       -0.370608  -0.003614
   84       -0.306656  -0.000945
   85       -0.186487  -0.000040
   86        0.173502  -0.000000
   87        0.258126  -0.000000
   88        0.810670  -0.000000
   89        0.839228  -0.000000
   90        1.093555  -0.000000
   91        1.280561  -0.000000
   92        1.614604  -0.000000
   93        2.134171  -0.000000
   94        2.516089  -0.000000
   95        3.007576  -0.000000
   96        3.361445  -0.000000
 
 -0.6250000E-01  0.1250000E+00  0.0000000E+00  0.2083333E-01
    1       -9.989291   1.000000
    2       -8.720399   1.000000
    3       -7.652453   1.000000
    4       -7.546182   1.000000
    5       -7.446101   1.000000
    6       -7.367699   1.000000
    7       -7.249975   1.000000
    8       -7.228930   1.000000
    9       -7.181128   1.000000
   10       -7.113868   1.000000
   11       -6.750207   1.000000
   12       -6.735008   1.000000
   13       -6.721693   1.000000
   14       -6.716689   1.000000
   15       -6.646732   1.000000
   16       -6.496534   1.000000
   17       -6.435697   1.000000
   18       -6.375343   1.000000
   19       -6.314537   1.000000
   20       -5.740058   1.000000
   21       -5.734078   1.000000
   22       -5.633869   1.000000
   23       -4.971262   1.000000
   24       -4.917784   1.000000
   25       -4.850165   1.000000
   26       -4.737709   1.000000
   27       -4.664233   1.000000
   28       -4.593686   1.000000
   29       -4.582352   1.000000
   30       -4.547453   1.000000
   31       -4.480933   1.000000
   32       -4.219503   1.000000
   33       -4.181166   1.000000
   34       -4.136151   1.000000
   35       -4.107409   1.000000
   36       -4.036990   1.000000
   37       -4.012759   1.000000
   38       -3.983409   1.000000
   39       -3.936650   1.000000
   40       -3.871952   1.000000
   41       -3.797248   1.000000
   42       -3.663464   1.000000
   43       -3.612329   1.000000
   44       -3.559228   1.000000
   45       -3.542548   1.000000
   46       -3.472465   1.000000
   47       -3.306146   1.000000
   48       -3.137614   1.000000
   49       -2.961843   1.000000
   50       -2.816008   1.000000
   51       -2.697949   1.000000
   52       -2.478371   1.000000
   53       -2.436273   1.000000
   54       -2.294925   1.000000
   55       -2.177473   1.000000
   56       -2.028032   1.000000
   57       -2.005759   1.000000
   58       -1.920903   1.000000
   59       -1.850078   1.000000
   60       -1.819023   1.000000
   61       -1.777620   1.000000
   62       -1.710737   1.000000
   63       -1.619213   1.000000
   64       -1.588900   1.000000
   65       -1.520044   1.000004
   66       -1.442351   1.000043
   67       -1.282130   1.002369
   68       -1.217295   1.007784
   69       -1.145354   1.020840
   70       -1.087313   1.033181
   71       -1.040368   1.033655
   72       -1.026238   1.029784
   73       -0.971201   0.984133
   74       -0.946620   0.943109
   75       -0.881020   0.760899
   76       -0.839106   0.598493
   77       -0.812009   0.484592
   78       -0.760837   0.277439
   79       -0.732049   0.178192
   80       -0.648112   0.000927
   81       -0.548249  -0.033798
   82       -0.457661  -0.014821
   83       -0.410778  -0.007383
   84       -0.304726  -0.000904
   85       -0.193731  -0.000050
   86        0.177038  -0.000000
   87        0.266868  -0.000000
   88        0.803546  -0.000000
   89        0.841268  -0.000000
   90        1.092779  -0.000000
   91        1.282307  -0.000000
   92        1.614066  -0.000000
   93        2.135399  -0.000000
   94        2.515573  -0.000000
   95        3.007470  -0.000000
   96        3.361400  -0.000000
 
  0.3125000E+00  0.6250000E-01  0.0000000E+00  0.2083333E-01
    1       -9.535592   1.000000
    2       -8.284474   1.000000
    3       -7.544553   1.000000
    4       -7.224339   1.000000
    5       -7.135391   1.000000
    6       -7.118717   1.000000
    7       -7.106030   1.000000
    8       -6.911197   1.000000
    9       -6.879492   1.000000
   10       -6.804047   1.000000
   11       -6.671350   1.000000
   12       -6.516109   1.000000
   13       -6.496184   1.000000
   14       -6.455404   1.000000
   15       -6.342797   1.000000
   16       -6.295793   1.000000
   17       -6.129120   1.000000
   18       -6.048724   1.000000
   19       -5.928011   1.000000
   20       -5.623173   1.000000
   21       -5.578739   1.000000
   22       -5.516844   1.000000
   23       -5.113355   1.000000
   24       -5.051666   1.000000
   25       -4.953258   1.000000
   26       -4.850913   1.000000
   27       -4.798825   1.000000
   28       -4.726080   1.000000
   29       -4.531994   1.000000
   30       -4.484969   1.000000
   31       -4.436133   1.000000
   32       -4.291626   1.000000
   33       -4.280598   1.000000
   34       -4.256473   1.000000
   35       -4.135424   1.000000
   36       -4.088684   1.000000
   37       -4.010261   1.000000
   38       -3.942393   1.000000
   39       -3.906225   1.000000
   40       -3.872903   1.000000
   41       -3.830729   1.000000
   42       -3.822847   1.000000
   43       -3.789784   1.000000
   44       -3.780084   1.000000
   45       -3.634243   1.000000
   46       -3.530357   1.000000
   47       -3.462732   1.000000
   48       -3.251916   1.000000
   49       -3.085643   1.000000
   50       -3.005420   1.000000
   51       -2.888397   1.000000
   52       -2.788172   1.000000
   53       -2.735910   1.000000
   54       -2.680188   1.000000
   55       -2.604184   1.000000
   56       -2.589831   1.000000
   57       -2.543742   1.000000
   58       -2.487988   1.000000
   59       -2.405053   1.000000
   60       -2.336355   1.000000
   61       -2.191322   1.000000
   62       -2.112082   1.000000
   63       -2.067578   1.000000
   64       -1.907318   1.000000
   65       -1.859177   1.000000
   66       -1.826601   1.000000
   67       -1.720802   1.000000
   68       -1.606594   1.000000
   69       -1.551182   1.000001
   70       -1.530775   1.000003
   71       -1.466658   1.000021
   72       -1.396399   1.000158
   73       -1.282620   1.002345
   74       -1.266198   1.003252
   75       -1.205389   1.009403
   76       -1.121673   1.026291
   77       -1.023813   1.028860
   78       -0.985030   1.001091
   79       -0.919082   0.879374
   80       -0.819534   0.516425
   81       -0.757846   0.266364
   82       -0.738035   0.197390
   83       -0.662506   0.019247
   84       -0.552579  -0.034343
   85       -0.460325  -0.015346
   86        0.303280  -0.000000
   87        0.365207  -0.000000
   88        0.540507  -0.000000
   89        0.928902  -0.000000
   90        1.690244  -0.000000
   91        1.904714  -0.000000
   92        1.923947  -0.000000
   93        2.279654  -0.000000
   94        2.658795  -0.000000
   95        3.228408  -0.000000
   96        3.908140  -0.000000
 
  0.2500000E+00  0.3125000E+00  0.0000000E+00  0.2083333E-01
    1       -9.535570   1.000000
    2       -8.284474   1.000000
    3       -7.544536   1.000000
    4       -7.224305   1.000000
    5       -7.135390   1.000000
    6       -7.118648   1.000000
    7       -7.105919   1.000000
    8       -6.910875   1.000000
    9       -6.879512   1.000000
   10       -6.803979   1.000000
   11       -6.671176   1.000000
   12       -6.514936   1.000000
   13       -6.498937   1.000000
   14       -6.453953   1.000000
   15       -6.349075   1.000000
   16       -6.289174   1.000000
   17       -6.128956   1.000000
   18       -6.050376   1.000000
   19       -5.927510   1.000000
   20       -5.623408   1.000000
   21       -5.578382   1.000000
   22       -5.517365   1.000000
   23       -5.114449   1.000000
   24       -5.049776   1.000000
   25       -4.953491   1.000000
   26       -4.851820   1.000000
   27       -4.797678   1.000000
   28       -4.726041   1.000000
   29       -4.533948   1.000000
   30       -4.489162   1.000000
   31       -4.431852   1.000000
   32       -4.298486   1.000000
   33       -4.276409   1.000000
   34       -4.247417   1.000000
   35       -4.137622   1.000000
   36       -4.089256   1.000000
   37       -4.013345   1.000000
   38       -3.932187   1.000000
   39       -3.903966   1.000000
   40       -3.882039   1.000000
   41       -3.836661   1.000000
   42       -3.814798   1.000000
   43       -3.791873   1.000000
   44       -3.780880   1.000000
   45       -3.637221   1.000000
   46       -3.535061   1.000000
   47       -3.463643   1.000000
   48       -3.250736   1.000000
   49       -3.075207   1.000000
   50       -3.003905   1.000000
   51       -2.891341   1.000000
   52       -2.796570   1.000000
   53       -2.722284   1.000000
   54       -2.692784   1.000000
   55       -2.603881   1.000000
   56       -2.586828   1.000000
   57       -2.529803   1.000000
   58       -2.486932   1.000000
   59       -2.390703   1.000000
   60       -2.357468   1.000000
   61       -2.204408   1.000000
   62       -2.131425   1.000000
   63       -2.031851   1.000000
   64       -1.923751   1.000000
   65       -1.874775   1.000000
   66       -1.827041   1.000000
   67       -1.690135   1.000000
   68       -1.619729   1.000000
   69       -1.563719   1.000001
   70       -1.517519   1.000004
   71       -1.479792   1.000014
   72       -1.366248   1.000347
   73       -1.277464   1.002603
   74       -1.268393   1.003116
   75       -1.214857   1.008098
   76       -1.129125   1.024576
   77       -1.031974   1.031655
   78       -0.983746   0.999689
   79       -0.919678   0.880954
   80       -0.817684   0.508602
   81       -0.763618   0.287874
   82       -0.729122   0.169104
   83       -0.649031   0.001962
   84       -0.561211  -0.035133
   85       -0.462471  -0.015776
   86        0.303213  -0.000000
   87        0.364255  -0.000000
   88        0.541580  -0.000000
   89        0.929930  -0.000000
   90        1.690294  -0.000000
   91        1.893611  -0.000000
   92        1.933911  -0.000000
   93        2.279304  -0.000000
   94        2.660199  -0.000000
   95        3.227244  -0.000000
   96        3.908120  -0.000000
 
 -0.6250000E-01  0.2500000E+00  0.0000000E+00  0.2083333E-01
    1       -9.535520   1.000000
    2       -8.284457   1.000000
    3       -7.544461   1.000000
    4       -7.224374   1.000000
    5       -7.132021   1.000000
    6       -7.121045   1.000000
    7       -7.105665   1.000000
    8       -6.909615   1.000000
    9       -6.881083   1.000000
   10       -6.804610   1.000000
   11       -6.671424   1.000000
   12       -6.514771   1.000000
   13       -6.498198   1.000000
   14       -6.455156   1.000000
   15       -6.347477   1.000000
   16       -6.292183   1.000000
   17       -6.132981   1.000000
   18       -6.035317   1.000000
   19       -5.939033   1.000000
   20       -5.608481   1.000000
   21       -5.587073   1.000000
   22       -5.523321   1.000000
   23       -5.106171   1.000000
   24       -5.051405   1.000000
   25       -4.958462   1.000000
   26       -4.858754   1.000000
   27       -4.790792   1.000000
   28       -4.731336   1.000000
   29       -4.538322   1.000000
   30       -4.483008   1.000000
   31       -4.428206   1.000000
   32       -4.299161   1.000000
   33       -4.268307   1.000000
   34       -4.240742   1.000000
   35       -4.143947   1.000000
   36       -4.085217   1.000000
   37       -4.024787   1.000000
   38       -3.933898   1.000000
   39       -3.894802   1.000000
   40       -3.876459   1.000000
   41       -3.837661   1.000000
   42       -3.824067   1.000000
   43       -3.795630   1.000000
   44       -3.774565   1.000000
   45       -3.661494   1.000000
   46       -3.539767   1.000000
   47       -3.443692   1.000000
   48       -3.254171   1.000000
   49       -3.062400   1.000000
   50       -3.008506   1.000000
   51       -2.873447   1.000000
   52       -2.804110   1.000000
   53       -2.737102   1.000000
   54       -2.683628   1.000000
   55       -2.605476   1.000000
   56       -2.586002   1.000000
   57       -2.523295   1.000000
   58       -2.475159   1.000000
   59       -2.421318   1.000000
   60       -2.337526   1.000000
   61       -2.230884   1.000000
   62       -2.155404   1.000000
   63       -1.966070   1.000000
   64       -1.937359   1.000000
   65       -1.902058   1.000000
   66       -1.805693   1.000000
   67       -1.681324   1.000000
   68       -1.611264   1.000000
   69       -1.590269   1.000000
   70       -1.527898   1.000003
   71       -1.479600   1.000014
   72       -1.400241   1.000143
   73       -1.283792   1.002290
   74       -1.237998   1.005481
   75       -1.157370   1.018174
   76       -1.114838   1.027832
   77       -1.080642   1.034113
   78       -0.990317   1.006503
   79       -0.899714   0.823248
   80       -0.834703   0.580211
   81       -0.794736   0.412033
   82       -0.727633   0.164556
   83       -0.628419  -0.017171
   84       -0.508592  -0.026054
   85       -0.503937  -0.024983
   86        0.303041  -0.000000
   87        0.363447  -0.000000
   88        0.543602  -0.000000
   89        0.927035  -0.000000
   90        1.708518  -0.000000
   91        1.886360  -0.000000
   92        1.907633  -0.000000
   93        2.297448  -0.000000
   94        2.660265  -0.000000
   95        3.225269  -0.000000
   96        3.907925  -0.000000
 
  0.4375000E+00  0.6250000E-01  0.0000000E+00  0.2083333E-01
    1       -8.896348   1.000000
    2       -7.911032   1.000000
    3       -7.722276   1.000000
    4       -7.146413   1.000000
    5       -6.784129   1.000000
    6       -6.775204   1.000000
    7       -6.623971   1.000000
    8       -6.575246   1.000000
    9       -6.547775   1.000000
   10       -6.534721   1.000000
   11       -6.485821   1.000000
   12       -6.247221   1.000000
   13       -6.186049   1.000000
   14       -6.080023   1.000000
   15       -6.057066   1.000000
   16       -5.992487   1.000000
   17       -5.843519   1.000000
   18       -5.693643   1.000000
   19       -5.537001   1.000000
   20       -5.441564   1.000000
   21       -5.394550   1.000000
   22       -5.353206   1.000000
   23       -5.293420   1.000000
   24       -5.218513   1.000000
   25       -5.058617   1.000000
   26       -5.036095   1.000000
   27       -4.978935   1.000000
   28       -4.778311   1.000000
   29       -4.742787   1.000000
   30       -4.680659   1.000000
   31       -4.645014   1.000000
   32       -4.508920   1.000000
   33       -4.468917   1.000000
   34       -4.413243   1.000000
   35       -4.358504   1.000000
   36       -4.233024   1.000000
   37       -4.139888   1.000000
   38       -4.092980   1.000000
   39       -3.982236   1.000000
   40       -3.901496   1.000000
   41       -3.820658   1.000000
   42       -3.753479   1.000000
   43       -3.717939   1.000000
   44       -3.673149   1.000000
   45       -3.646901   1.000000
   46       -3.618157   1.000000
   47       -3.553709   1.000000
   48       -3.492360   1.000000
   49       -3.381431   1.000000
   50       -3.343358   1.000000
   51       -3.294688   1.000000
   52       -3.224997   1.000000
   53       -3.194749   1.000000
   54       -3.028196   1.000000
   55       -3.008475   1.000000
   56       -2.921324   1.000000
   57       -2.860540   1.000000
   58       -2.778783   1.000000
   59       -2.751903   1.000000
   60       -2.558577   1.000000
   61       -2.487293   1.000000
   62       -2.396491   1.000000
   63       -2.345051   1.000000
   64       -2.254887   1.000000
   65       -2.216219   1.000000
   66       -2.159956   1.000000
   67       -2.092384   1.000000
   68       -2.009570   1.000000
   69       -1.941701   1.000000
   70       -1.880163   1.000000
   71       -1.848945   1.000000
   72       -1.766657   1.000000
   73       -1.649844   1.000000
   74       -1.448875   1.000036
   75       -1.403734   1.000130
   76       -1.313030   1.001228
   77       -1.217457   1.007764
   78       -1.059621   1.035454
   79       -0.914198   0.866082
   80       -0.883582   0.769883
   81       -0.806590   0.461701
   82       -0.727351   0.163702
   83       -0.676842   0.042221
   84       -0.581671  -0.034959
   85       -0.479891  -0.019480
   86       -0.215774  -0.000094
   87        0.684129  -0.000000
   88        1.015347  -0.000000
   89        1.059308  -0.000000
   90        1.771902  -0.000000
   91        1.963163  -0.000000
   92        2.106586  -0.000000
   93        2.436041  -0.000000
   94        3.025837  -0.000000
   95        3.576277  -0.000000
   96        3.997607  -0.000000
 
  0.3750000E+00  0.4375000E+00  0.0000000E+00  0.2083333E-01
    1       -8.896321   1.000000
    2       -7.911040   1.000000
    3       -7.722285   1.000000
    4       -7.146366   1.000000
    5       -6.786582   1.000000
    6       -6.772389   1.000000
    7       -6.623937   1.000000
    8       -6.575726   1.000000
    9       -6.545630   1.000000
   10       -6.536330   1.000000
   11       -6.486093   1.000000
   12       -6.247487   1.000000
   13       -6.186062   1.000000
   14       -6.077434   1.000000
   15       -6.058872   1.000000
   16       -5.992831   1.000000
   17       -5.844174   1.000000
   18       -5.693506   1.000000
   19       -5.537887   1.000000
   20       -5.439000   1.000000