  17  17   0   0
  0.4847811E+02  0.5557859E-09  0.5557859E-09  0.3080696E-08  0.5000000E-15
  1.000000000000000E-004
  CAR 
 unknown system                          
      6.45915186    -12.07649141  301     -0.72232302      1.00000000
    -12.076  0.0000E+00  0.0000E+00
    -12.015  0.0000E+00  0.0000E+00
    -11.953  0.0000E+00  0.0000E+00
    -11.891  0.0000E+00  0.0000E+00
    -11.829  0.0000E+00  0.0000E+00
    -11.768  0.0000E+00  0.0000E+00
    -11.706 -0.3505E-28 -0.2165E-29
    -11.644 -0.4688E-26 -0.2918E-27
    -11.582 -0.5187E-24 -0.3234E-25
    -11.520 -0.4733E-22 -0.2956E-23
    -11.459 -0.3561E-20 -0.2230E-21
    -11.397 -0.2209E-18 -0.1387E-19
    -11.335 -0.1130E-16 -0.7119E-18
    -11.273 -0.4761E-15 -0.3013E-16
    -11.211 -0.1602E-13 -0.1020E-14
    -11.150 -0.4565E-12 -0.2922E-13
    -11.088 -0.1070E-10 -0.6902E-12
    -11.026 -0.2061E-09 -0.1342E-10
    -10.964 -0.3262E-08 -0.2150E-09
    -10.903 -0.4235E-07 -0.2832E-08
    -10.841 -0.4505E-06 -0.3067E-07
    -10.779 -0.3919E-05 -0.2728E-06
    -10.717 -0.2779E-04 -0.1990E-05
    -10.655 -0.1601E-03 -0.1188E-04
    -10.594 -0.7446E-03 -0.5789E-04
    -10.532 -0.2769E-02 -0.2290E-03
    -10.470 -0.8094E-02 -0.7291E-03
    -10.408 -0.1798E-01 -0.1840E-02
    -10.346 -0.2777E-01 -0.3555E-02
    -10.285 -0.1975E-01 -0.4775E-02
    -10.223  0.3530E-01 -0.2594E-02
    -10.161  0.1586E+00  0.7202E-02
    -10.099  0.3394E+00  0.2817E-01
    -10.038  0.5385E+00  0.6144E-01
     -9.976  0.7168E+00  0.1057E+00
     -9.914  0.8524E+00  0.1584E+00
     -9.852  0.9281E+00  0.2157E+00
     -9.790  0.9284E+00  0.2731E+00
     -9.729  0.8615E+00  0.3263E+00
     -9.667  0.7770E+00  0.3743E+00
     -9.605  0.7503E+00  0.4207E+00
     -9.543  0.8296E+00  0.4720E+00
     -9.482  0.9783E+00  0.5324E+00
     -9.420  0.1086E+01  0.5995E+00
     -9.358  0.1073E+01  0.6658E+00
     -9.296  0.9614E+00  0.7252E+00
     -9.234  0.8370E+00  0.7769E+00
     -9.173  0.7537E+00  0.8235E+00
     -9.111  0.7278E+00  0.8684E+00
     -9.049  0.7947E+00  0.9175E+00
     -8.987  0.1004E+01  0.9795E+00
     -8.925  0.1331E+01  0.1062E+01
     -8.864  0.1652E+01  0.1164E+01
     -8.802  0.1847E+01  0.1278E+01
     -8.740  0.1914E+01  0.1396E+01
     -8.678  0.1924E+01  0.1515E+01
     -8.617  0.1903E+01  0.1633E+01
     -8.555  0.1822E+01  0.1745E+01
     -8.493  0.1708E+01  0.1851E+01
     -8.431  0.1691E+01  0.1955E+01
     -8.369  0.1900E+01  0.2073E+01
     -8.308  0.2303E+01  0.2215E+01
     -8.246  0.2674E+01  0.2380E+01
     -8.184  0.2777E+01  0.2552E+01
     -8.122  0.2584E+01  0.2711E+01
     -8.060  0.2296E+01  0.2853E+01
     -7.999  0.2122E+01  0.2984E+01
     -7.937  0.2127E+01  0.3116E+01
     -7.875  0.2289E+01  0.3257E+01
     -7.813  0.2635E+01  0.3420E+01
     -7.752  0.3242E+01  0.3620E+01
     -7.690  0.4091E+01  0.3873E+01
     -7.628  0.4972E+01  0.4180E+01
     -7.566  0.5630E+01  0.4528E+01
     -7.504  0.6072E+01  0.4903E+01
     -7.443  0.6630E+01  0.5313E+01
     -7.381  0.7626E+01  0.5784E+01
     -7.319  0.9054E+01  0.6344E+01
     -7.257  0.1065E+02  0.7001E+01
     -7.195  0.1213E+02  0.7751E+01
     -7.134  0.1328E+02  0.8571E+01
     -7.072  0.1390E+02  0.9430E+01
     -7.010  0.1384E+02  0.1029E+02
     -6.948  0.1323E+02  0.1110E+02
     -6.887  0.1261E+02  0.1188E+02
     -6.825  0.1271E+02  0.1267E+02
     -6.763  0.1402E+02  0.1353E+02
     -6.701  0.1641E+02  0.1455E+02
     -6.639  0.1921E+02  0.1573E+02
     -6.578  0.2166E+02  0.1707E+02
     -6.516  0.2337E+02  0.1852E+02
     -6.454  0.2432E+02  0.2002E+02
     -6.392  0.2463E+02  0.2154E+02
     -6.330  0.2439E+02  0.2305E+02
     -6.269  0.2380E+02  0.2452E+02
     -6.207  0.2315E+02  0.2595E+02
     -6.145  0.2262E+02  0.2735E+02
     -6.083  0.2210E+02  0.2871E+02
     -6.022  0.2139E+02  0.3003E+02
     -5.960  0.2037E+02  0.3129E+02
     -5.898  0.1918E+02  0.3248E+02
     -5.836  0.1808E+02  0.3359E+02
     -5.774  0.1739E+02  0.3467E+02
     -5.713  0.1733E+02  0.3574E+02
     -5.651  0.1794E+02  0.3685E+02
     -5.589  0.1900E+02  0.3802E+02
     -5.527  0.2009E+02  0.3926E+02
     -5.465  0.2079E+02  0.4055E+02
     -5.404  0.2083E+02  0.4183E+02
     -5.342  0.2024E+02  0.4309E+02
     -5.280  0.1935E+02  0.4428E+02
     -5.218  0.1865E+02  0.4543E+02
     -5.157  0.1847E+02  0.4657E+02
     -5.095  0.1878E+02  0.4773E+02
     -5.033  0.1937E+02  0.4893E+02
     -4.971  0.2012E+02  0.5017E+02
     -4.909  0.2102E+02  0.5147E+02
     -4.848  0.2191E+02  0.5283E+02
     -4.786  0.2248E+02  0.5422E+02
     -4.724  0.2277E+02  0.5562E+02
     -4.662  0.2326E+02  0.5706E+02
     -4.600  0.2443E+02  0.5857E+02
     -4.539  0.2618E+02  0.6019E+02
     -4.477  0.2780E+02  0.6190E+02
     -4.415  0.2851E+02  0.6367E+02
     -4.353  0.2810E+02  0.6540E+02
     -4.292  0.2718E+02  0.6708E+02
     -4.230  0.2680E+02  0.6874E+02
     -4.168  0.2769E+02  0.7045E+02
     -4.106  0.2962E+02  0.7228E+02
     -4.044  0.3156E+02  0.7423E+02
     -3.983  0.3264E+02  0.7624E+02
     -3.921  0.3281E+02  0.7827E+02
     -3.859  0.3272E+02  0.8029E+02
     -3.797  0.3290E+02  0.8233E+02
     -3.735  0.3336E+02  0.8439E+02
     -3.674  0.3379E+02  0.8647E+02
     -3.612  0.3383E+02  0.8856E+02
     -3.550  0.3315E+02  0.9061E+02
     -3.488  0.3153E+02  0.9256E+02
     -3.427  0.2907E+02  0.9436E+02
     -3.365  0.2622E+02  0.9598E+02
     -3.303  0.2350E+02  0.9743E+02
     -3.241  0.2118E+02  0.9874E+02
     -3.179  0.1938E+02  0.9993E+02
     -3.118  0.1837E+02  0.1011E+03
     -3.056  0.1861E+02  0.1022E+03
     -2.994  0.2033E+02  0.1035E+03
     -2.932  0.2315E+02  0.1049E+03
     -2.870  0.2599E+02  0.1065E+03
     -2.809  0.2770E+02  0.1082E+03
     -2.747  0.2770E+02  0.1099E+03
     -2.685  0.2627E+02  0.1116E+03
     -2.623  0.2423E+02  0.1131E+03
     -2.562  0.2247E+02  0.1144E+03
     -2.500  0.2168E+02  0.1158E+03
     -2.438  0.2205E+02  0.1171E+03
     -2.376  0.2325E+02  0.1186E+03
     -2.314  0.2459E+02  0.1201E+03
     -2.253  0.2534E+02  0.1217E+03
     -2.191  0.2519E+02  0.1232E+03
     -2.129  0.2446E+02  0.1247E+03
     -2.067  0.2393E+02  0.1262E+03
     -2.005  0.2428E+02  0.1277E+03
     -1.944  0.2554E+02  0.1293E+03
     -1.882  0.2705E+02  0.1310E+03
     -1.820  0.2781E+02  0.1327E+03
     -1.758  0.2714E+02  0.1344E+03
     -1.697  0.2520E+02  0.1359E+03
     -1.635  0.2287E+02  0.1373E+03
     -1.573  0.2112E+02  0.1386E+03
     -1.511  0.2038E+02  0.1399E+03
     -1.449  0.2056E+02  0.1412E+03
     -1.388  0.2138E+02  0.1425E+03
     -1.326  0.2267E+02  0.1439E+03
     -1.264  0.2412E+02  0.1454E+03
     -1.202  0.2530E+02  0.1469E+03
     -1.140  0.2600E+02  0.1485E+03
     -1.079  0.2651E+02  0.1502E+03
     -1.017  0.2740E+02  0.1519E+03
     -0.955  0.2891E+02  0.1537E+03
     -0.893  0.3068E+02  0.1556E+03
     -0.832  0.3201E+02  0.1575E+03
     -0.770  0.3220E+02  0.1595E+03
     -0.708  0.3092E+02  0.1614E+03
     -0.646  0.2843E+02  0.1632E+03
     -0.584  0.2549E+02  0.1648E+03
     -0.523  0.2276E+02  0.1662E+03
     -0.461  0.2018E+02  0.1674E+03
     -0.399  0.1725E+02  0.1685E+03
     -0.337  0.1397E+02  0.1693E+03
     -0.275  0.1108E+02  0.1700E+03
     -0.214  0.9324E+01  0.1706E+03
     -0.152  0.8677E+01  0.1711E+03
     -0.090  0.8414E+01  0.1717E+03
     -0.028  0.7797E+01  0.1721E+03
      0.033  0.6652E+01  0.1726E+03
      0.095  0.5364E+01  0.1729E+03
      0.157  0.4446E+01  0.1732E+03
      0.219  0.4112E+01  0.1734E+03
      0.281  0.4201E+01  0.1737E+03
      0.342  0.4420E+01  0.1739E+03
      0.404  0.4640E+01  0.1742E+03
      0.466  0.4977E+01  0.1745E+03
      0.528  0.5579E+01  0.1749E+03
      0.590  0.6301E+01  0.1753E+03
      0.651  0.6697E+01  0.1757E+03
      0.713  0.6437E+01  0.1761E+03
      0.775  0.5690E+01  0.1764E+03
      0.837  0.4969E+01  0.1767E+03
      0.898  0.4662E+01  0.1770E+03
      0.960  0.4804E+01  0.1773E+03
      1.022  0.5200E+01  0.1777E+03
      1.084  0.5577E+01  0.1780E+03
      1.146  0.5649E+01  0.1783E+03
      1.207  0.5231E+01  0.1787E+03
      1.269  0.4404E+01  0.1789E+03
      1.331  0.3534E+01  0.1792E+03
      1.393  0.3087E+01  0.1794E+03
      1.455  0.3361E+01  0.1796E+03
      1.516  0.4275E+01  0.1798E+03
      1.578  0.5367E+01  0.1802E+03
      1.640  0.6094E+01  0.1805E+03
      1.702  0.6289E+01  0.1809E+03
      1.763  0.6221E+01  0.1813E+03
      1.825  0.6172E+01  0.1817E+03
      1.887  0.6049E+01  0.1821E+03
      1.949  0.5579E+01  0.1824E+03
      2.011  0.4770E+01  0.1827E+03
      2.072  0.3999E+01  0.1829E+03
      2.134  0.3637E+01  0.1832E+03
      2.196  0.3729E+01  0.1834E+03
      2.258  0.4080E+01  0.1837E+03
      2.320  0.4559E+01  0.1839E+03
      2.381  0.5207E+01  0.1843E+03
      2.443  0.6032E+01  0.1846E+03
      2.505  0.6795E+01  0.1850E+03
      2.567  0.7081E+01  0.1855E+03
      2.628  0.6642E+01  0.1859E+03
      2.690  0.5673E+01  0.1862E+03
      2.752  0.4694E+01  0.1865E+03
      2.814  0.4120E+01  0.1868E+03
      2.876  0.3982E+01  0.1870E+03
      2.937  0.4045E+01  0.1873E+03
      2.999  0.4125E+01  0.1875E+03
      3.061  0.4231E+01  0.1878E+03
      3.123  0.4437E+01  0.1881E+03
      3.185  0.4673E+01  0.1884E+03
      3.246  0.4698E+01  0.1887E+03
      3.308  0.4325E+01  0.1889E+03
      3.370  0.3666E+01  0.1892E+03
      3.432  0.3091E+01  0.1893E+03
      3.493  0.2893E+01  0.1895E+03
      3.555  0.3040E+01  0.1897E+03
      3.617  0.3277E+01  0.1899E+03
      3.679  0.3421E+01  0.1901E+03
      3.741  0.3481E+01  0.1903E+03
      3.802  0.3519E+01  0.1906E+03
      3.864  0.3494E+01  0.1908E+03
      3.926  0.3312E+01  0.1910E+03
      3.988  0.2993E+01  0.1912E+03
      4.050  0.2677E+01  0.1913E+03
      4.111  0.2465E+01  0.1915E+03
      4.173  0.2314E+01  0.1916E+03
      4.235  0.2088E+01  0.1917E+03
      4.297  0.1696E+01  0.1919E+03
      4.358  0.1185E+01  0.1919E+03
      4.420  0.6974E+00  0.1920E+03
      4.482  0.3499E+00  0.1920E+03
      4.544  0.1510E+00  0.1920E+03
      4.606  0.4805E-01  0.1920E+03
      4.667 -0.3231E-02  0.1920E+03
      4.729 -0.2219E-01  0.1920E+03
      4.791 -0.2119E-01  0.1920E+03
      4.853 -0.1291E-01  0.1920E+03
      4.915 -0.5774E-02  0.1920E+03
      4.976 -0.1986E-02  0.1920E+03
      5.038 -0.5372E-03  0.1920E+03
      5.100 -0.1159E-03  0.1920E+03
      5.162 -0.2013E-04  0.1920E+03
      5.223 -0.2831E-05  0.1920E+03
      5.285 -0.3236E-06  0.1920E+03
      5.347 -0.3018E-07  0.1920E+03
      5.409 -0.2301E-08  0.1920E+03
      5.471 -0.1438E-09  0.1920E+03
      5.532 -0.7368E-11  0.1920E+03
      5.594 -0.3100E-12  0.1920E+03
      5.656 -0.1078E-13  0.1920E+03
      5.718 -0.2995E-15  0.1920E+03
      5.780  0.0000E+00  0.1920E+03
      5.841  0.0000E+00  0.1920E+03
      5.903  0.0000E+00  0.1920E+03
      5.965  0.0000E+00  0.1920E+03
      6.027  0.0000E+00  0.1920E+03
      6.088  0.0000E+00  0.1920E+03
      6.150  0.0000E+00  0.1920E+03
      6.212  0.0000E+00  0.1920E+03
      6.274  0.0000E+00  0.1920E+03
      6.336  0.0000E+00  0.1920E+03
      6.397  0.0000E+00  0.1920E+03
      6.459  0.0000E+00  0.1920E+03
