   17   17    1    1
  0.4847811E+02  0.5557859E-09  0.5557859E-09  0.3080696E-08  0.5000000E-15
  1.000000000000000E-004
  CAR 
 unknown system                          
    161     52     96
 
  0.6250000E-01  0.6250000E-01  0.0000000E+00  0.2083333E-01
    1      -10.076491   1.000000
    2       -8.849992   1.000000
    3       -7.787867   1.000000
    4       -7.623668   1.000000
    5       -7.365214   1.000000
    6       -7.325430   1.000000
    7       -7.310109   1.000000
    8       -7.205566   1.000000
    9       -7.172754   1.000000
   10       -7.147860   1.000000
   11       -6.802727   1.000000
   12       -6.726446   1.000000
   13       -6.712904   1.000000
   14       -6.700500   1.000000
   15       -6.688660   1.000000
   16       -6.503858   1.000000
   17       -6.462499   1.000000
   18       -6.420557   1.000000
   19       -6.377522   1.000000
   20       -5.943107   1.000000
   21       -5.708480   1.000000
   22       -5.614692   1.000000
   23       -5.558325   1.000000
   24       -4.848206   1.000000
   25       -4.788835   1.000000
   26       -4.741461   1.000000
   27       -4.580279   1.000000
   28       -4.557742   1.000000
   29       -4.548882   1.000000
   30       -4.507820   1.000000
   31       -4.289881   1.000000
   32       -4.250739   1.000000
   33       -4.208365   1.000000
   34       -4.094882   1.000000
   35       -4.078732   1.000000
   36       -3.988931   1.000000
   37       -3.947444   1.000000
   38       -3.903362   1.000000
   39       -3.850061   1.000000
   40       -3.811865   1.000000
   41       -3.744569   1.000000
   42       -3.601267   1.000000
   43       -3.568733   1.000000
   44       -3.390649   1.000000
   45       -3.372223   1.000000
   46       -3.137063   1.000000
   47       -3.091022   1.000000
   48       -2.893993   1.000000
   49       -2.866397   1.000000
   50       -2.788036   1.000000
   51       -2.688070   1.000000
   52       -2.389868   1.000000
   53       -2.286032   1.000000
   54       -2.236382   1.000000
   55       -2.074829   1.000000
   56       -2.021581   1.000000
   57       -1.792361   1.000000
   58       -1.737816   1.000000
   59       -1.718314   1.000000
   60       -1.647230   1.000000
   61       -1.544062   1.000000
   62       -1.520361   1.000000
   63       -1.278658   1.000300
   64       -1.154058   1.004632
   65       -1.096710   1.011824
   66       -1.060341   1.018981
   67       -1.037579   1.024164
   68       -0.971398   1.035394
   69       -0.911763   1.018744
   70       -0.876289   0.981921
   71       -0.791039   0.772610
   72       -0.748693   0.610514
   73       -0.702132   0.415044
   74       -0.659888   0.249547
   75       -0.635732   0.168915
   76       -0.612965   0.105294
   77       -0.568352   0.018072
   78       -0.441421  -0.031606
   79       -0.429827  -0.029287
   80       -0.402121  -0.023019
   81       -0.264039  -0.002793
   82       -0.189831  -0.000544
   83       -0.146879  -0.000183
   84       -0.012393  -0.000003
   85        0.067293  -0.000000
   86        0.172554  -0.000000
   87        0.407469  -0.000000
   88        0.478932  -0.000000
   89        1.261393  -0.000000
   90        1.444530  -0.000000
   91        1.683077  -0.000000
   92        1.695584  -0.000000
   93        1.787280  -0.000000
   94        1.803530  -0.000000
   95        2.474772  -0.000000
   96        2.645853  -0.000000
 
  0.0000000E+00  0.6250000E-01  0.0000000E+00  0.1041667E-01
    1      -10.076491   1.000000
    2       -8.850010   1.000000
    3       -7.787945   1.000000
    4       -7.623663   1.000000
    5       -7.365823   1.000000
    6       -7.321815   1.000000
    7       -7.312916   1.000000
    8       -7.207882   1.000000
    9       -7.164772   1.000000
   10       -7.153709   1.000000
   11       -6.804224   1.000000
   12       -6.717253   1.000000
   13       -6.717027   1.000000
   14       -6.704822   1.000000
   15       -6.685964   1.000000
   16       -6.507205   1.000000
   17       -6.461783   1.000000
   18       -6.411758   1.000000
   19       -6.386067   1.000000
   20       -5.942787   1.000000
   21       -5.709357   1.000000
   22       -5.614139   1.000000
   23       -5.557336   1.000000
   24       -4.852019   1.000000
   25       -4.786948   1.000000
   26       -4.741435   1.000000
   27       -4.582454   1.000000
   28       -4.554855   1.000000
   29       -4.545712   1.000000
   30       -4.509529   1.000000
   31       -4.289746   1.000000
   32       -4.246033   1.000000
   33       -4.212834   1.000000
   34       -4.090451   1.000000
   35       -4.082947   1.000000
   36       -3.981020   1.000000
   37       -3.957750   1.000000
   38       -3.896430   1.000000
   39       -3.852027   1.000000
   40       -3.814454   1.000000
   41       -3.741879   1.000000
   42       -3.600976   1.000000
   43       -3.570149   1.000000
   44       -3.399515   1.000000
   45       -3.370955   1.000000
   46       -3.138701   1.000000
   47       -3.070954   1.000000
   48       -2.892940   1.000000
   49       -2.888418   1.000000
   50       -2.803691   1.000000
   51       -2.663729   1.000000
   52       -2.378837   1.000000
   53       -2.278097   1.000000
   54       -2.245153   1.000000
   55       -2.070913   1.000000
   56       -2.036062   1.000000
   57       -1.770425   1.000000
   58       -1.755716   1.000000
   59       -1.725406   1.000000
   60       -1.658065   1.000000
   61       -1.549616   1.000000
   62       -1.534684   1.000000
   63       -1.221627   1.001176
   64       -1.197132   1.001995
   65       -1.102140   1.010924
   66       -1.034081   1.024973
   67       -1.033826   1.025032
   68       -0.973348   1.035321
   69       -0.926962   1.027370
   70       -0.875691   0.981071
   71       -0.804994   0.818872
   72       -0.720001   0.490173
   73       -0.714147   0.465435
   74       -0.645432   0.199772
   75       -0.637385   0.174021
   76       -0.610952   0.100288
   77       -0.571216   0.022219
   78       -0.441595  -0.031638
   79       -0.428310  -0.028964
   80       -0.394434  -0.021253
   81       -0.262043  -0.002685
   82       -0.175297  -0.000380
   83       -0.157396  -0.000241
   84       -0.029527  -0.000006
   85        0.043072  -0.000000
   86        0.180489  -0.000000
   87        0.451006  -0.000000
   88        0.454984  -0.000000
   89        1.257988  -0.000000
   90        1.459312  -0.000000
   91        1.674069  -0.000000
   92        1.684821  -0.000000
   93        1.761038  -0.000000
   94        1.837284  -0.000000
   95        2.470475  -0.000000
   96        2.649038  -0.000000
 
  0.1875000E+00  0.6250000E-01  0.0000000E+00  0.2083333E-01
    1       -9.872950   1.000000
    2       -8.650264   1.000000
    3       -7.584471   1.000000
    4       -7.428499   1.000000
    5       -7.335488   1.000000
    6       -7.255300   1.000000
    7       -7.137723   1.000000
    8       -7.110947   1.000000
    9       -7.063417   1.000000
   10       -6.981974   1.000000
   11       -6.702239   1.000000
   12       -6.646348   1.000000
   13       -6.606454   1.000000
   14       -6.601922   1.000000
   15       -6.572509   1.000000
   16       -6.390247   1.000000
   17       -6.345304   1.000000
   18       -6.279801   1.000000
   19       -6.197105   1.000000
   20       -5.900119   1.000000
   21       -5.643942   1.000000
   22       -5.561530   1.000000
   23       -5.510001   1.000000
   24       -4.845907   1.000000
   25       -4.823640   1.000000
   26       -4.757484   1.000000
   27       -4.585309   1.000000
   28       -4.544433   1.000000
   29       -4.494175   1.000000
   30       -4.485606   1.000000
   31       -4.420713   1.000000
   32       -4.350557   1.000000
   33       -4.079435   1.000000
   34       -4.065754   1.000000
   35       -4.051025   1.000000
   36       -3.996336   1.000000
   37       -3.946545   1.000000
   38       -3.898331   1.000000
   39       -3.883182   1.000000
   40       -3.791135   1.000000
   41       -3.768309   1.000000
   42       -3.660662   1.000000
   43       -3.539111   1.000000
   44       -3.530883   1.000000
   45       -3.422348   1.000000
   46       -3.406831   1.000000
   47       -3.292303   1.000000
   48       -3.077542   1.000000
   49       -2.925045   1.000000
   50       -2.819016   1.000000
   51       -2.730700   1.000000
   52       -2.631890   1.000000
   53       -2.413276   1.000000
   54       -2.317793   1.000000
   55       -2.228008   1.000000
   56       -2.049280   1.000000
   57       -1.941978   1.000000
   58       -1.915238   1.000000
   59       -1.870408   1.000000
   60       -1.785471   1.000000
   61       -1.730067   1.000000
   62       -1.670503   1.000000
   63       -1.613459   1.000000
   64       -1.540475   1.000000
   65       -1.499036   1.000000
   66       -1.384891   1.000015
   67       -1.276260   1.000319
   68       -1.225057   1.001089
   69       -1.102558   1.010857
   70       -1.060436   1.018960
   71       -1.001425   1.031935
   72       -0.952774   1.034566
   73       -0.921963   1.024940
   74       -0.859911   0.955593
   75       -0.797844   0.795698
   76       -0.766084   0.680344
   77       -0.746703   0.602314
   78       -0.710763   0.451175
   79       -0.637293   0.173735
   80       -0.588856   0.052051
   81       -0.523789  -0.024350
   82       -0.491024  -0.034671
   83       -0.374639  -0.016906
   84       -0.278575  -0.003704
   85       -0.108746  -0.000064
   86        0.248840  -0.000000
   87        0.321221  -0.000000
   88        0.600629  -0.000000
   89        0.887894  -0.000000
   90        1.073595  -0.000000
   91        1.339925  -0.000000
   92        1.623028  -0.000000
   93        2.210041  -0.000000
   94        2.495591  -0.000000
   95        2.786755  -0.000000
   96        3.102537  -0.000000
 
  0.1250000E+00  0.1875000E+00  0.0000000E+00  0.2083333E-01
    1       -9.872955   1.000000
    2       -8.650377   1.000000
    3       -7.584928   1.000000
    4       -7.428531   1.000000
    5       -7.335657   1.000000
    6       -7.253976   1.000000
    7       -7.138000   1.000000
    8       -7.114034   1.000000
    9       -7.057785   1.000000
   10       -6.984688   1.000000
   11       -6.710054   1.000000
   12       -6.637162   1.000000
   13       -6.610877   1.000000
   14       -6.601999   1.000000
   15       -6.560500   1.000000
   16       -6.397514   1.000000
   17       -6.330134   1.000000
   18       -6.294820   1.000000
   19       -6.202489   1.000000
   20       -5.897559   1.000000
   21       -5.646670   1.000000
   22       -5.560146   1.000000
   23       -5.505027   1.000000
   24       -4.876208   1.000000
   25       -4.802889   1.000000
   26       -4.753956   1.000000
   27       -4.585765   1.000000
   28       -4.534395   1.000000
   29       -4.500523   1.000000
   30       -4.477718   1.000000
   31       -4.424759   1.000000
   32       -4.349607   1.000000
   33       -4.084602   1.000000
   34       -4.059030   1.000000
   35       -4.049071   1.000000
   36       -3.993179   1.000000
   37       -3.930057   1.000000
   38       -3.890695   1.000000
   39       -3.881117   1.000000
   40       -3.817736   1.000000
   41       -3.771499   1.000000
   42       -3.667506   1.000000
   43       -3.548761   1.000000
   44       -3.522159   1.000000
   45       -3.432553   1.000000
   46       -3.413519   1.000000
   47       -3.249568   1.000000
   48       -3.104357   1.000000
   49       -2.911551   1.000000
   50       -2.858458   1.000000
   51       -2.701117   1.000000
   52       -2.603717   1.000000
   53       -2.390648   1.000000
   54       -2.365438   1.000000
   55       -2.208056   1.000000
   56       -2.097990   1.000000
   57       -1.953646   1.000000
   58       -1.919874   1.000000
   59       -1.836043   1.000000
   60       -1.789629   1.000000
   61       -1.728577   1.000000
   62       -1.694175   1.000000
   63       -1.614934   1.000000
   64       -1.581860   1.000000
   65       -1.480555   1.000001
   66       -1.420183   1.000005
   67       -1.219932   1.001221
   68       -1.198126   1.001954
   69       -1.092195   1.012607
   70       -1.062267   1.018560
   71       -1.012065   1.029865
   72       -0.955580   1.034888
   73       -0.927808   1.027744
   74       -0.864566   0.963728
   75       -0.818534   0.859514
   76       -0.763080   0.668549
   77       -0.723779   0.506159
   78       -0.692012   0.373363
   79       -0.669061   0.283247
   80       -0.579345   0.035037
   81       -0.481871  -0.035378
   82       -0.476385  -0.035454
   83       -0.401436  -0.022861
   84       -0.291482  -0.004708
   85       -0.097529  -0.000046
   86        0.255201  -0.000000
   87        0.322111  -0.000000
   88        0.597569  -0.000000
   89        0.892561  -0.000000
   90        1.075638  -0.000000
   91        1.338662  -0.000000
   92        1.616588  -0.000000
   93        2.207992  -0.000000
   94        2.488159  -0.000000
   95        2.784163  -0.000000
   96        3.106980  -0.000000
 
 -0.6250000E-01  0.1250000E+00  0.0000000E+00  0.2083333E-01
    1       -9.872958   1.000000
    2       -8.650457   1.000000
    3       -7.585312   1.000000
    4       -7.428653   1.000000
    5       -7.334818   1.000000
    6       -7.253657   1.000000
    7       -7.138264   1.000000
    8       -7.116180   1.000000
    9       -7.053198   1.000000
   10       -6.987930   1.000000
   11       -6.708237   1.000000
   12       -6.638814   1.000000
   13       -6.610795   1.000000
   14       -6.601862   1.000000
   15       -6.555491   1.000000
   16       -6.403289   1.000000
   17       -6.330644   1.000000
   18       -6.285520   1.000000
   19       -6.212531   1.000000
   20       -5.895720   1.000000
   21       -5.649310   1.000000
   22       -5.558538   1.000000
   23       -5.501956   1.000000
   24       -4.880200   1.000000
   25       -4.812955   1.000000
   26       -4.743794   1.000000
   27       -4.584504   1.000000
   28       -4.532167   1.000000
   29       -4.495632   1.000000
   30       -4.476763   1.000000
   31       -4.434531   1.000000
   32       -4.341999   1.000000
   33       -4.079310   1.000000
   34       -4.062071   1.000000
   35       -4.058077   1.000000
   36       -3.988194   1.000000
   37       -3.929180   1.000000
   38       -3.898531   1.000000
   39       -3.851867   1.000000
   40       -3.808382   1.000000
   41       -3.793505   1.000000
   42       -3.675363   1.000000
   43       -3.563783   1.000000
   44       -3.516636   1.000000
   45       -3.431651   1.000000
   46       -3.414488   1.000000
   47       -3.232860   1.000000
   48       -3.113939   1.000000
   49       -2.922151   1.000000
   50       -2.867535   1.000000
   51       -2.662961   1.000000
   52       -2.609905   1.000000
   53       -2.392634   1.000000
   54       -2.367851   1.000000
   55       -2.196450   1.000000
   56       -2.111982   1.000000
   57       -1.959179   1.000000
   58       -1.903859   1.000000
   59       -1.872153   1.000000
   60       -1.787805   1.000000
   61       -1.740498   1.000000
   62       -1.699700   1.000000
   63       -1.616419   1.000000
   64       -1.561762   1.000000
   65       -1.527274   1.000000
   66       -1.388947   1.000013
   67       -1.244674   1.000693
   68       -1.174018   1.003180
   69       -1.096433   1.011871
   70       -1.063425   1.018308
   71       -1.007641   1.030760
   72       -0.946384   1.033529
   73       -0.913725   1.020072
   74       -0.865218   0.964825
   75       -0.804734   0.818052
   76       -0.781665   0.739261
   77       -0.726175   0.516295
   78       -0.688067   0.357380
   79       -0.640455   0.183673
   80       -0.583820   0.042766
   81       -0.507824  -0.031107
   82       -0.442621  -0.031826
   83       -0.379727  -0.017985
   84       -0.328075  -0.008763
   85       -0.103605  -0.000055
   86        0.254469  -0.000000
   87        0.331635  -0.000000
   88        0.605860  -0.000000
   89        0.887215  -0.000000
   90        1.079865  -0.000000
   91        1.345910  -0.000000
   92        1.589186  -0.000000
   93        2.213275  -0.000000
   94        2.475326  -0.000000
   95        2.798682  -0.000000
   96        3.107852  -0.000000
 
  0.3125000E+00  0.6250000E-01  0.0000000E+00  0.2083333E-01
    1       -9.420317   1.000000
    2       -8.218734   1.000000
    3       -7.433088   1.000000
    4       -7.154828   1.000000
    5       -7.037757   1.000000
    6       -7.006914   1.000000
    7       -6.984065   1.000000
    8       -6.807661   1.000000
    9       -6.769891   1.000000
   10       -6.679692   1.000000
   11       -6.588329   1.000000
   12       -6.451693   1.000000
   13       -6.380703   1.000000
   14       -6.353662   1.000000
   15       -6.285490   1.000000
   16       -6.203197   1.000000
   17       -6.037804   1.000000
   18       -5.968450   1.000000
   19       -5.832655   1.000000
   20       -5.774761   1.000000
   21       -5.508363   1.000000
   22       -5.425214   1.000000
   23       -5.407145   1.000000
   24       -4.977713   1.000000
   25       -4.905247   1.000000
   26       -4.823099   1.000000
   27       -4.750372   1.000000
   28       -4.663742   1.000000
   29       -4.613505   1.000000
   30       -4.435573   1.000000
   31       -4.368617   1.000000
   32       -4.323266   1.000000
   33       -4.216806   1.000000
   34       -4.165371   1.000000
   35       -4.112812   1.000000
   36       -4.047236   1.000000
   37       -4.001729   1.000000
   38       -3.864809   1.000000
   39       -3.848211   1.000000
   40       -3.768372   1.000000
   41       -3.748810   1.000000
   42       -3.719955   1.000000
   43       -3.701116   1.000000
   44       -3.654789   1.000000
   45       -3.595413   1.000000
   46       -3.506880   1.000000
   47       -3.423218   1.000000
   48       -3.243665   1.000000
   49       -3.132564   1.000000
   50       -3.026269   1.000000
   51       -2.925954   1.000000
   52       -2.820310   1.000000
   53       -2.709958   1.000000
   54       -2.669861   1.000000
   55       -2.611520   1.000000
   56       -2.525697   1.000000
   57       -2.478837   1.000000
   58       -2.402931   1.000000
   59       -2.345328   1.000000
   60       -2.294452   1.000000
   61       -2.244720   1.000000
   62       -2.094925   1.000000
   63       -2.035207   1.000000
   64       -1.951233   1.000000
   65       -1.863266   1.000000
   66       -1.778860   1.000000
   67       -1.714100   1.000000
   68       -1.622309   1.000000
   69       -1.501233   1.000000
   70       -1.448317   1.000002
   71       -1.416126   1.000005
   72       -1.317139   1.000108
   73       -1.248255   1.000636
   74       -1.207535   1.001601
   75       -1.186742   1.002470
   76       -1.114701   1.009025
   77       -1.016352   1.028960
   78       -0.934329   1.030288
   79       -0.844579   0.925011
   80       -0.784228   0.748548
   81       -0.690291   0.366368
   82       -0.655355   0.233476
   83       -0.569255   0.019359
   84       -0.483965  -0.035283
   85       -0.423780  -0.027975
   86       -0.022800  -0.000004
   87        0.342150  -0.000000
   88        0.611502  -0.000000
   89        0.999786  -0.000000
   90        1.492649  -0.000000
   91        1.770076  -0.000000
   92        1.979272  -0.000000
   93        2.325862  -0.000000
   94        2.482695  -0.000000
   95        3.208060  -0.000000
   96        3.595509  -0.000000
 
  0.2500000E+00  0.3125000E+00  0.0000000E+00  0.2083333E-01
    1       -9.420340   1.000000
    2       -8.219037   1.000000
    3       -7.432935   1.000000
    4       -7.155415   1.000000
    5       -7.037102   1.000000
    6       -7.006262   1.000000
    7       -6.986595   1.000000
    8       -6.805320   1.000000
    9       -6.769475   1.000000
   10       -6.675110   1.000000
   11       -6.594909   1.000000
   12       -6.453813   1.000000
   13       -6.392887   1.000000
   14       -6.340313   1.000000
   15       -6.265564   1.000000
   16       -6.205159   1.000000
   17       -6.042147   1.000000
   18       -5.992107   1.000000
   19       -5.831925   1.000000
   20       -5.762893   1.000000
   21       -5.503818   1.000000
   22       -5.435232   1.000000
   23       -5.397943   1.000000
   24       -5.004297   1.000000
   25       -4.868260   1.000000
   26       -4.839472   1.000000
   27       -4.757774   1.000000
   28       -4.651914   1.000000
   29       -4.611487   1.000000
   30       -4.443292   1.000000
   31       -4.382507   1.000000
   32       -4.308935   1.000000
   33       -4.201666   1.000000
   34       -4.160684   1.000000
   35       -4.115361   1.000000
   36       -4.049920   1.000000
   37       -3.990970   1.000000
   38       -3.873686   1.000000
   39       -3.842522   1.000000
   40       -3.783965   1.000000
   41       -3.746229   1.000000
   42       -3.705441   1.000000
   43       -3.687100   1.000000
   44       -3.658537   1.000000
   45       -3.616042   1.000000
   46       -3.502971   1.000000
   47       -3.409241   1.000000
   48       -3.276569   1.000000
   49       -3.134200   1.000000
   50       -2.994731   1.000000
   51       -2.916741   1.000000
   52       -2.815226   1.000000
   53       -2.736238   1.000000
   54       -2.680721   1.000000
   55       -2.606940   1.000000
   56       -2.545545   1.000000
   57       -2.474217   1.000000
   58       -2.401591   1.000000
   59       -2.360121   1.000000
   60       -2.273272   1.000000
   61       -2.255137   1.000000
   62       -2.131570   1.000000
   63       -2.054120   1.000000
   64       -1.914389   1.000000
   65       -1.866543   1.000000
   66       -1.791269   1.000000
   67       -1.743363   1.000000
   68       -1.607274   1.000000
   69       -1.491975   1.000000
   70       -1.453000   1.000002
   71       -1.410096   1.000007
   72       -1.338572   1.000059
   73       -1.229238   1.000991
   74       -1.185533   1.002531
   75       -1.163255   1.003907
   76       -1.103576   1.010694
   77       -1.019617   1.028250
   78       -0.929615   1.028509
   79       -0.837263   0.908337
   80       -0.780113   0.733577
   81       -0.712546   0.458682
   82       -0.649664   0.213892
   83       -0.558427   0.005135
   84       -0.480772  -0.035412
   85       -0.428929  -0.029096
   86       -0.031451  -0.000006
   87        0.345772  -0.000000
   88        0.614004  -0.000000
   89        1.001534  -0.000000
   90        1.496027  -0.000000
   91        1.768680  -0.000000
   92        1.991646  -0.000000
   93        2.318692  -0.000000
   94        2.464832  -0.000000
   95        3.207880  -0.000000
   96        3.593732  -0.000000
 
 -0.6250000E-01  0.2500000E+00  0.0000000E+00  0.2083333E-01
    1       -9.420394   1.000000
    2       -8.219984   1.000000
    3       -7.431387   1.000000
    4       -7.161013   1.000000
    5       -7.025819   1.000000
    6       -7.006336   1.000000
    7       -6.991000   1.000000
    8       -6.807911   1.000000
    9       -6.762071   1.000000
   10       -6.686234   1.000000
   11       -6.580185   1.000000
   12       -6.456856   1.000000
   13       -6.391083   1.000000
   14       -6.355036   1.000000
   15       -6.250140   1.000000
   16       -6.205286   1.000000
   17       -6.071376   1.000000
   18       -5.952333   1.000000
   19       -5.872082   1.000000
   20       -5.740763   1.000000
   21       -5.509769   1.000000
   22       -5.439404   1.000000
   23       -5.377841   1.000000
   24       -5.002880   1.000000
   25       -4.925741   1.000000
   26       -4.806504   1.000000
   27       -4.729038   1.000000
   28       -4.672983   1.000000
   29       -4.616448   1.000000
   30       -4.428016   1.000000
   31       -4.388974   1.000000
   32       -4.289142   1.000000
   33       -4.211093   1.000000
   34       -4.153189   1.000000
   35       -4.123106   1.000000
   36       -4.036273   1.000000
   37       -3.966211   1.000000
   38       -3.890342   1.000000
   39       -3.825315   1.000000
   40       -3.780884   1.000000
   41       -3.758569   1.000000
   42       -3.731957   1.000000
   43       -3.702600   1.000000
   44       -3.669125   1.000000
   45       -3.571318   1.000000
   46       -3.506121   1.000000
   47       -3.418159   1.000000
   48       -3.286849   1.000000
   49       -3.138030   1.000000
   50       -2.951590   1.000000
   51       -2.934511   1.000000
   52       -2.817945   1.000000
   53       -2.753559   1.000000
   54       -2.674942   1.000000
   55       -2.622510   1.000000
   56       -2.533350   1.000000
   57       -2.485940   1.000000
   58       -2.407986   1.000000
   59       -2.366638   1.000000
   60       -2.268616   1.000000
   61       -2.254930   1.000000
   62       -2.134984   1.000000
   63       -2.064954   1.000000
   64       -1.960671   1.000000
   65       -1.898308   1.000000
   66       -1.806151   1.000000
   67       -1.704047   1.000000
   68       -1.595956   1.000000
   69       -1.513916   1.000000
   70       -1.443157   1.000002
   71       -1.415592   1.000005
   72       -1.385341   1.000014
   73       -1.223640   1.001124
   74       -1.199122   1.001914
   75       -1.154937   1.004558
   76       -1.043235   1.022855
   77       -1.013745   1.029515
   78       -0.919175   1.023416
   79       -0.813677   0.845439
   80       -0.771338   0.700654
   81       -0.721183   0.495174
   82       -0.635025   0.166751
   83       -0.537320  -0.015493
   84       -0.450216  -0.033112
   85       -0.418084  -0.026697
   86       -0.041103  -0.000008
   87        0.336014  -0.000000
   88        0.617496  -0.000000
   89        0.983684  -0.000000
   90        1.470155  -0.000000
   91        1.797284  -0.000000
   92        1.951574  -0.000000
   93        2.352216  -0.000000
   94        2.458628  -0.000000
   95        3.176802  -0.000000
   96        3.584593  -0.000000
 
  0.4375000E+00  0.6250000E-01  0.0000000E+00  0.2083333E-01
    1       -8.782583   1.000000
    2       -7.797190   1.000000
    3       -7.664069   1.000000
    4       -7.078004   1.000000
    5       -6.710362   1.000000
    6       -6.658489   1.000000
    7       -6.548301   1.000000
    8       -6.489123   1.000000
    9       -6.447085   1.000000
   10       -6.411795   1.000000
   11       -6.370054   1.000000
   12       -6.199770   1.000000
   13       -6.084179   1.000000
   14       -6.027632   1.000000
   15       -5.948936   1.000000
   16       -5.921671   1.000000
   17       -5.800661   1.000000
   18       -5.683751   1.000000
   19       -5.558820   1.000000
   20       -5.430524   1.000000
   21       -5.329296   1.000000
   22       -5.278228   1.000000
   23       -5.207536   1.000000
   24       -5.135953   1.000000
   25       -5.049674   1.000000
   26       -4.938434   1.000000
   27       -4.899745   1.000000
   28       -4.850259   1.000000
   29       -4.663532   1.000000
   30       -4.587181   1.000000
   31       -4.573425   1.000000
   32       -4.520089   1.000000
   33       -4.401031   1.000000
   34       -4.374683   1.000000
   35       -4.277305   1.000000
   36       -4.198196   1.000000
   37       -4.141294   1.000000
   38       -4.030750   1.000000
   39       -3.960063   1.000000
   40       -3.904508   1.000000
   41       -3.820063   1.000000
   42       -3.730458   1.000000
   43       -3.672893   1.000000
   44       -3.623651   1.000000
   45       -3.567435   1.000000
   46       -3.532722   1.000000
   47       -3.500327   1.000000
   48       -3.416776   1.000000
   49       -3.391201   1.000000
   50       -3.278165   1.000000
   51       -3.233234   1.000000
   52       -3.213667   1.000000
   53       -3.124925   1.000000
   54       -3.088955   1.000000
   55       -2.950805   1.000000
   56       -2.913962   1.000000
   57       -2.827754   1.000000
   58       -2.776761   1.000000
   59       -2.687907   1.000000
   60       -2.614950   1.000000
   61       -2.459597   1.000000
   62       -2.375723   1.000000
   63       -2.315492   1.000000
   64       -2.243731   1.000000
   65       -2.187054   1.000000
   66       -2.139638   1.000000
   67       -2.065125   1.000000
   68       -1.957587   1.000000
   69       -1.920629   1.000000
   70       -1.835603   1.000000
   71       -1.816179   1.000000
   72       -1.727521   1.000000
   73       -1.591450   1.000000
   74       -1.417284   1.000005
   75       -1.349395   1.000043
   76       -1.307439   1.000141
   77       -1.220846   1.001197
   78       -1.161239   1.004057
   79       -0.872249   0.976016
   80       -0.836402   0.906288
   81       -0.774057   0.710995
   82       -0.666933   0.275293
   83       -0.635066   0.166876
   84       -0.497677  -0.033642
   85       -0.428406  -0.028984
   86       -0.268181  -0.003031
   87        0.617127  -0.000000
   88        0.759632  -0.000000
   89        1.138231  -0.000000
   90        1.644869  -0.000000
   91        1.851300  -0.000000
   92        2.149073  -0.000000
   93        2.467704  -0.000000
   94        2.672387  -0.000000
   95        3.494743  -0.000000
   96        3.800388  -0.000000
 
  0.3750000E+00  0.4375000E+00  0.0000000E+00  0.2083333E-01
    1       -8.782650   1.000000
    2       -7.797021   1.000000
    3       -7.664677   1.000000
    4       -7.077499   1.000000
    5       -6.705802   1.000000
    6       -6.666091   1.000000
    7       -6.547411   1.000000
    8       -6.484814   1.000000
    9       -6.451046   1.000000
   10       -6.409934   1.000000
   11       -6.370137   1.000000
   12       -6.198392   1.000000
   13       -6.073746   1.000000
   14       -6.019419   1.000000
   15       -5.965174   1.000000
   16       -5.945206   1.000000
   17       -5.765513   1.000000
   18       -5.690523   1.000000
   19       -5.570647   1.000000
   20       -5.416548   1.000000