<?xml version="1.0" encoding="ISO-8859-1"?>
<modeling>
 <generator>
  <i name="program" type="string">vasp </i>
  <i name="version" type="string">5.4.4.18Apr17-6-g9f103f2a35  </i>
  <i name="subversion" type="string">(build Apr 28 2017 10:53:45) complex            parallel </i>
  <i name="platform" type="string">LinuxIFC </i>
  <i name="date" type="string">2020 02 16 </i>
  <i name="time" type="string">20:55:27 </i>
 </generator>
 <incar>
  <i type="string" name="PREC">normal</i>
  <i type="int" name="ISPIN">     1</i>
  <i type="int" name="IBRION">     2</i>
  <i name="EDIFF">      0.00001000</i>
  <i name="EDIFFG">     -0.05000000</i>
  <i type="int" name="NSW">     0</i>
  <i name="ENCUT">    350.00000000</i>
  <i type="logical" name="LWAVE"> F  </i>
  <i type="logical" name="LCHARG"> F  </i>
  <v type="int" name="KPOINT_BSE">    -1     0     0     0</v>
  <i type="string" name="GGA"> PE</i>
  <i type="int" name="IDIPOL">     3</i>
 </incar>
 <structure name="primitive_cell" >
  <crystal>
   <varray name="basis" >
    <v>       5.55785930       0.00000000       0.00000000 </v>
    <v>       2.77892965       4.81324734       0.00000000 </v>
    <v>       0.00000000       0.00000000      30.80695967 </v>
   </varray>
   <i name="volume">    824.12780743 </i>
   <varray name="rec_basis" >
    <v>       0.17992539      -0.10387997       0.00000000 </v>
    <v>       0.00000000       0.20775994       0.00000000 </v>
    <v>       0.00000000       0.00000000       0.03246020 </v>
   </varray>
  </crystal>
  <varray name="positions" >
   <v>       0.00000000       0.00000000       0.38952237 </v>
   <v>       0.00000000      -0.50000000       0.38952237 </v>
   <v>      -0.50000000      -0.50000000       0.38952237 </v>
   <v>      -0.50000000       0.00000000       0.38952237 </v>
   <v>       0.16652883       0.16652883       0.46542487 </v>
   <v>       0.16652883      -0.33305766       0.46542487 </v>
   <v>      -0.33305766       0.16652883       0.46542487 </v>
   <v>      -0.33333333      -0.33333333       0.46426737 </v>
   <v>      -0.16603131      -0.16603131      -0.45994801 </v>
   <v>      -0.16603131       0.33206261      -0.45994801 </v>
   <v>       0.33206261      -0.16603131      -0.45994801 </v>
   <v>       0.33333333       0.33333333      -0.46005508 </v>
   <v>       0.00000000       0.00000000      -0.38095648 </v>
   <v>      -0.00097456      -0.49951272      -0.38501086 </v>
   <v>      -0.49951272      -0.00097456      -0.38501086 </v>
   <v>      -0.49951272      -0.49951272      -0.38501086 </v>
   <v>       0.00000000       0.00000000      -0.33046564 </v>
  </varray>
 </structure>
 <varray name="primitive_index" >
  <v type="int" >        1 </v>
  <v type="int" >        3 </v>
  <v type="int" >        4 </v>
  <v type="int" >        2 </v>
  <v type="int" >        5 </v>
  <v type="int" >        7 </v>
  <v type="int" >        6 </v>
  <v type="int" >        8 </v>
  <v type="int" >       11 </v>
  <v type="int" >        9 </v>
  <v type="int" >       12 </v>
  <v type="int" >       10 </v>
  <v type="int" >       13 </v>
  <v type="int" >       14 </v>
  <v type="int" >       16 </v>
  <v type="int" >       15 </v>
  <v type="int" >       17 </v>
 </varray>
 <kpoints>
  <generation param="Monkhorst-Pack">
   <v type="int" name="divisions">       8        8        1 </v>
   <v name="usershift">      0.00000000       0.00000000       0.00000000 </v>
   <v name="genvec1">      0.12500000       0.00000000       0.00000000 </v>
   <v name="genvec2">      0.00000000       0.12500000       0.00000000 </v>
   <v name="genvec3">      0.00000000       0.00000000       1.00000000 </v>
   <v name="shift">      0.50000000       0.50000000       0.00000000 </v>
  </generation>
  <varray name="kpointlist" >
   <v>       0.06250000       0.06250000       0.00000000 </v>
   <v>       0.00000000       0.06250000       0.00000000 </v>
   <v>       0.18750000       0.06250000       0.00000000 </v>
   <v>       0.12500000       0.18750000       0.00000000 </v>
   <v>      -0.06250000       0.12500000       0.00000000 </v>
   <v>       0.31250000       0.06250000       0.00000000 </v>
   <v>       0.25000000       0.31250000       0.00000000 </v>
   <v>      -0.06250000       0.25000000       0.00000000 </v>
   <v>       0.43750000       0.06250000       0.00000000 </v>
   <v>       0.37500000       0.43750000       0.00000000 </v>
   <v>      -0.06250000       0.37500000       0.00000000 </v>
   <v>      -0.43750000       0.06250000       0.00000000 </v>
   <v>       0.50000000      -0.43750000       0.00000000 </v>
   <v>      -0.06250000       0.50000000       0.00000000 </v>
   <v>      -0.31250000       0.06250000       0.00000000 </v>
   <v>      -0.37500000      -0.31250000       0.00000000 </v>
   <v>      -0.06250000      -0.37500000       0.00000000 </v>
   <v>      -0.18750000       0.06250000       0.00000000 </v>
   <v>      -0.25000000      -0.18750000       0.00000000 </v>
   <v>      -0.06250000      -0.25000000       0.00000000 </v>
   <v>      -0.06250000       0.06250000       0.00000000 </v>
   <v>      -0.12500000      -0.06250000       0.00000000 </v>
   <v>       0.18750000       0.18750000       0.00000000 </v>
   <v>       0.00000000       0.18750000       0.00000000 </v>
   <v>       0.31250000       0.18750000       0.00000000 </v>
   <v>       0.12500000       0.31250000       0.00000000 </v>
   <v>      -0.18750000       0.12500000       0.00000000 </v>
   <v>       0.43750000       0.18750000       0.00000000 </v>
   <v>       0.25000000       0.43750000       0.00000000 </v>
   <v>      -0.18750000       0.25000000       0.00000000 </v>
   <v>      -0.43750000       0.18750000       0.00000000 </v>
   <v>       0.37500000      -0.43750000       0.00000000 </v>
   <v>      -0.18750000       0.37500000       0.00000000 </v>
   <v>      -0.31250000       0.18750000       0.00000000 </v>
   <v>       0.50000000      -0.31250000       0.00000000 </v>
   <v>      -0.18750000       0.50000000       0.00000000 </v>
   <v>      -0.18750000       0.18750000       0.00000000 </v>
   <v>      -0.37500000      -0.18750000       0.00000000 </v>
   <v>       0.31250000       0.31250000       0.00000000 </v>
   <v>       0.00000000       0.31250000       0.00000000 </v>
   <v>       0.43750000       0.31250000       0.00000000 </v>
   <v>       0.12500000       0.43750000       0.00000000 </v>
   <v>      -0.31250000       0.12500000       0.00000000 </v>
   <v>      -0.43750000       0.31250000       0.00000000 </v>
   <v>       0.25000000      -0.43750000       0.00000000 </v>
   <v>      -0.31250000       0.25000000       0.00000000 </v>
   <v>      -0.31250000       0.31250000       0.00000000 </v>
   <v>       0.37500000      -0.31250000       0.00000000 </v>
   <v>       0.43750000       0.43750000       0.00000000 </v>
   <v>       0.00000000       0.43750000       0.00000000 </v>
   <v>      -0.43750000       0.43750000       0.00000000 </v>
   <v>       0.12500000      -0.43750000       0.00000000 </v>
  </varray>
  <varray name="weights" >
   <v>       0.02083333 </v>
   <v>       0.01041667 </v>
   <v>       0.02083333 </v>
   <v>       0.02083333 </v>
   <v>       0.02083333 </v>
   <v>       0.02083333 </v>
   <v>       0.02083333 </v>
   <v>       0.02083333 </v>
   <v>       0.02083333 </v>
   <v>       0.02083333 </v>
   <v>       0.02083333 </v>
   <v>       0.02083333 </v>
   <v>       0.02083333 </v>
   <v>       0.02083333 </v>
   <v>       0.02083333 </v>
   <v>       0.02083333 </v>
   <v>       0.02083333 </v>
   <v>       0.02083333 </v>
   <v>       0.02083333 </v>
   <v>       0.02083333 </v>
   <v>       0.02083333 </v>
   <v>       0.01041667 </v>
   <v>       0.02083333 </v>
   <v>       0.01041667 </v>
   <v>       0.02083333 </v>
   <v>       0.02083333 </v>
   <v>       0.02083333 </v>
   <v>       0.02083333 </v>
   <v>       0.02083333 </v>
   <v>       0.02083333 </v>
   <v>       0.02083333 </v>
   <v>       0.02083333 </v>
   <v>       0.02083333 </v>
   <v>       0.02083333 </v>
   <v>       0.02083333 </v>
   <v>       0.02083333 </v>
   <v>       0.02083333 </v>
   <v>       0.01041667 </v>
   <v>       0.02083333 </v>
   <v>       0.01041667 </v>
   <v>       0.02083333 </v>
   <v>       0.02083333 </v>
   <v>       0.02083333 </v>
   <v>       0.02083333 </v>
   <v>       0.02083333 </v>
   <v>       0.02083333 </v>
   <v>       0.02083333 </v>
   <v>       0.01041667 </v>
   <v>       0.02083333 </v>
   <v>       0.01041667 </v>
   <v>       0.02083333 </v>
   <v>       0.01041667 </v>
  </varray>
 </kpoints>
 <parameters>
  <separator name="general" >
   <i type="string" name="SYSTEM">unknown system</i>
   <i type="logical" name="LCOMPAT"> F  </i>
  </separator>
  <separator name="electronic" >
   <i type="string" name="PREC">normal</i>
   <i name="ENMAX">    350.00000000</i>
   <i name="ENAUG">    400.00000000</i>
   <i name="EDIFF">      0.00001000</i>
   <i type="int" name="IALGO">    38</i>
   <i type="int" name="IWAVPR">    10</i>
   <i type="int" name="NBANDS">    96</i>
   <i name="NELECT">    161.00000000</i>
   <i type="int" name="TURBO">     0</i>
   <i type="int" name="IRESTART">     0</i>
   <i type="int" name="NREBOOT">     0</i>
   <i type="int" name="NMIN">     0</i>
   <i name="EREF">      0.00000000</i>
   <separator name="electronic smearing" >
    <i type="int" name="ISMEAR">     1</i>
    <i name="SIGMA">      0.20000000</i>
    <i name="KSPACING">      0.50000000</i>
    <i type="logical" name="KGAMMA"> T  </i>
   </separator>
   <separator name="electronic projectors" >
    <i type="logical" name="LREAL"> F  </i>
    <v name="ROPT">      0.00000000      0.00000000      0.00000000      0.00000000</v>
    <i type="int" name="LMAXPAW">  -100</i>
    <i type="int" name="LMAXMIX">     2</i>
    <i type="logical" name="NLSPLINE"> F  </i>
   </separator>
   <separator name="electronic startup" >
    <i type="int" name="ISTART">     0</i>
    <i type="int" name="ICHARG">     2</i>
    <i type="int" name="INIWAV">     1</i>
   </separator>
   <separator name="electronic spin" >
    <i type="int" name="ISPIN">     1</i>
    <i type="logical" name="LNONCOLLINEAR"> F  </i>
    <v name="MAGMOM">      1.00000000      1.00000000      1.00000000      1.00000000      1.00000000      1.00000000      1.00000000      1.00000000      1.00000000      1.00000000      1.00000000      1.00000000      1.00000000      1.00000000      1.00000000      1.00000000      1.00000000</v>
    <i name="NUPDOWN">     -1.00000000</i>
    <i type="logical" name="LSORBIT"> F  </i>
    <v name="SAXIS">      0.00000000      0.00000000      1.00000000</v>
    <i type="logical" name="LSPIRAL"> F  </i>
    <v name="QSPIRAL">      0.00000000      0.00000000      0.00000000</v>
    <i type="logical" name="LZEROZ"> F  </i>
   </separator>
   <separator name="electronic exchange-correlation" >
    <i type="logical" name="LASPH"> F  </i>
    <i type="logical" name="LMETAGGA"> F  </i>
   </separator>
   <separator name="electronic convergence" >
    <i type="int" name="NELM">    60</i>
    <i type="int" name="NELMDL">    -5</i>
    <i type="int" name="NELMIN">     2</i>
    <i name="ENINI">    350.00000000</i>
    <separator name="electronic convergence detail" >
     <i type="logical" name="LDIAG"> T  </i>
     <i type="logical" name="LSUBROT"> F  </i>
     <i name="WEIMIN">      0.00000000</i>
     <i name="EBREAK">      0.00000003</i>
     <i name="DEPER">      0.30000000</i>
     <i type="int" name="NRMM">     4</i>
     <i name="TIME">      0.40000000</i>
    </separator>
   </separator>
   <separator name="electronic mixer" >
    <i name="AMIX">      0.40000000</i>
    <i name="BMIX">      1.00000000</i>
    <i name="AMIN">      0.10000000</i>
    <i name="AMIX_MAG">      1.60000000</i>
    <i name="BMIX_MAG">      1.00000000</i>
    <separator name="electronic mixer details" >
     <i type="int" name="IMIX">     4</i>
     <i type="logical" name="MIXFIRST"> F  </i>
     <i type="int" name="MAXMIX">   -45</i>
     <i name="WC">    100.00000000</i>
     <i type="int" name="INIMIX">     1</i>
     <i type="int" name="MIXPRE">     1</i>
     <i type="int" name="MREMOVE">     5</i>
    </separator>
   </separator>
   <separator name="electronic dipolcorrection" >
    <i type="logical" name="LDIPOL"> F  </i>
    <i type="logical" name="LMONO"> F  </i>
    <i type="int" name="IDIPOL">     3</i>
    <i name="EPSILON">      1.00000000</i>
    <v name="DIPOL">   -100.00000000   -100.00000000   -100.00000000</v>
    <i name="EFIELD">      0.00000000</i>
   </separator>
  </separator>
  <separator name="grids" >
   <i type="int" name="NGX">    28</i>
   <i type="int" name="NGY">    28</i>
   <i type="int" name="NGZ">   144</i>
   <i type="int" name="NGXF">    56</i>
   <i type="int" name="NGYF">    56</i>
   <i type="int" name="NGZF">   288</i>
   <i type="logical" name="ADDGRID"> F  </i>
  </separator>
  <separator name="ionic" >
   <i type="int" name="NSW">     0</i>
   <i type="int" name="IBRION">    -1</i>
   <i type="int" name="MDALGO">     0</i>
   <i type="int" name="ISIF">     2</i>
   <i name="PSTRESS">      0.00000000</i>
   <i name="EDIFFG">     -0.05000000</i>
   <i type="int" name="NFREE">     1</i>
   <i name="POTIM">      0.50000000</i>
   <i name="SMASS">     -3.00000000</i>
   <i name="SCALEE">      1.00000000</i>
  </separator>
  <separator name="ionic md" >
   <i name="TEBEG">      0.00010000</i>
   <i name="TEEND">      0.00010000</i>
   <i type="int" name="NBLOCK">     1</i>
   <i type="int" name="KBLOCK">     1</i>
   <i type="int" name="NPACO">   256</i>
   <i name="APACO">     16.00000000</i>
  </separator>
  <separator name="symmetry" >
   <i type="int" name="ISYM">     2</i>
   <i name="SYMPREC">      0.00001000</i>
  </separator>
  <separator name="dos" >
   <i type="int" name="LORBIT">     0</i>
   <v name="RWIGS">     -1.00000000     -1.00000000     -1.00000000     -1.00000000</v>
   <i type="int" name="NEDOS">   301</i>
   <i name="EMIN">     10.00000000</i>
   <i name="EMAX">    -10.00000000</i>
   <i name="EFERMI">      0.00000000</i>
  </separator>
  <separator name="writing" >
   <i type="int" name="NWRITE">     2</i>
   <i type="logical" name="LWAVE"> F  </i>
   <i type="logical" name="LDOWNSAMPLE"> F  </i>
   <i type="logical" name="LCHARG"> F  </i>
   <i type="logical" name="LPARD"> F  </i>
   <i type="logical" name="LVTOT"> F  </i>
   <i type="logical" name="LVHAR"> F  </i>
   <i type="logical" name="LELF"> F  </i>
   <i type="logical" name="LOPTICS"> F  </i>
   <v name="STM">      0.00000000      0.00000000      0.00000000      0.00000000      0.00000000      0.00000000      0.00000000</v>
  </separator>
  <separator name="performance" >
   <i type="int" name="NPAR">    24</i>
   <i type="int" name="NSIM">     4</i>
   <i type="int" name="NBLK">    -1</i>
   <i type="logical" name="LPLANE"> T  </i>
   <i type="logical" name="LSCALAPACK"> T  </i>
   <i type="logical" name="LSCAAWARE"> F  </i>
   <i type="logical" name="LSCALU"> F  </i>
   <i type="logical" name="LASYNC"> F  </i>
   <i type="logical" name="LORBITALREAL"> F  </i>
  </separator>
  <separator name="miscellaneous" >
   <i type="int" name="IDIOT">     3</i>
   <i type="int" name="ISPECIAL">     0</i>
   <i type="logical" name="LMUSIC"> F  </i>
   <v name="POMASS">    192.22000000    195.08000000    196.96600000      1.00000000</v>
   <v name="DARWINR">      0.00000000      0.00000000      0.00000000      0.00000000</v>
   <v name="DARWINV">      1.00000000      1.00000000      1.00000000      1.00000000</v>
   <i type="logical" name="LCORR"> T  </i>
  </separator>
  <i type="logical" name="GGA_COMPAT"> T  </i>
  <i type="logical" name="LBERRY"> F  </i>
  <i type="int" name="ICORELEVEL">     0</i>
  <i type="logical" name="LDAU"> F  </i>
  <i type="int" name="I_CONSTRAINED_M">     0</i>
  <separator name="electronic exchange-correlation" >
   <i type="string" name="GGA">PE</i>
   <i type="int" name="VOSKOWN">     0</i>
   <i type="logical" name="LHFCALC"> F  </i>
   <i type="string" name="PRECFOCK"></i>
   <i type="logical" name="LSYMGRAD"> F  </i>
   <i type="logical" name="LHFONE"> F  </i>
   <i type="logical" name="LRHFCALC"> F  </i>
   <i type="logical" name="LTHOMAS"> F  </i>
   <i type="logical" name="LMODELHF"> F  </i>
   <i name="ENCUT4O">     -1.00000000</i>
   <i type="int" name="EXXOEP">     0</i>
   <i type="int" name="FOURORBIT">     0</i>
   <i name="AEXX">      0.00000000</i>
   <i name="HFALPHA">      0.00000000</i>
   <i name="MCALPHA">      0.00000000</i>
   <i name="ALDAX">      1.00000000</i>
   <i name="AGGAX">      1.00000000</i>
   <i name="ALDAC">      1.00000000</i>
   <i name="AGGAC">      1.00000000</i>
   <i type="int" name="NKREDX">     1</i>
   <i type="int" name="NKREDY">     1</i>
   <i type="int" name="NKREDZ">     1</i>
   <i type="logical" name="SHIFTRED"> F  </i>
   <i type="logical" name="ODDONLY"> F  </i>
   <i type="logical" name="EVENONLY"> F  </i>
   <i type="int" name="LMAXFOCK">     0</i>
   <i type="int" name="NMAXFOCKAE">     0</i>
   <i type="logical" name="LFOCKAEDFT"> F  </i>
   <i name="HFSCREEN">      0.00000000</i>
   <i name="HFSCREENC">      0.00000000</i>
   <i type="int" name="NBANDSGWLOW">     0</i>
  </separator>
  <separator name="vdW DFT" >
   <i type="logical" name="LUSE_VDW"> F  </i>
   <i name="Zab_VDW">     -0.84910000</i>
   <i name="PARAM1">      0.12340000</i>
   <i name="PARAM2">      1.00000000</i>
   <i name="PARAM3">      0.00000000</i>
  </separator>
  <separator name="model GW" >
   <i type="int" name="MODEL_GW">     0</i>
   <i name="MODEL_EPS0">     29.08686379</i>
   <i name="MODEL_ALPHA">      1.00000000</i>
  </separator>
  <separator name="linear response parameters" >
   <i type="logical" name="LEPSILON"> F  </i>
   <i type="logical" name="LRPA"> F  </i>
   <i type="logical" name="LNABLA"> F  </i>
   <i type="logical" name="LVEL"> F  </i>
   <i type="int" name="KINTER">     0</i>
   <i name="CSHIFT">      0.10000000</i>
   <i name="OMEGAMAX">     -1.00000000</i>
   <i name="DEG_THRESHOLD">      0.00200000</i>
   <i name="RTIME">     -0.10000000</i>
   <i name="WPLASMAI">      0.00000000</i>
   <v name="DFIELD">      0.00000000      0.00000000      0.00000000</v>
   <v name="WPLASMA">      0.00000000      0.00000000      0.00000000      0.00000000      0.00000000      0.00000000      0.00000000      0.00000000      0.00000000</v>
  </separator>
  <separator name="orbital magnetization" >
   <i type="logical" name="NUCIND"> F  </i>
   <v name="MAGPOS">      0.00000000      0.00000000      0.00000000</v>
   <i type="logical" name="LNICSALL"> T  </i>
   <i type="logical" name="ORBITALMAG"> F  </i>
   <i type="logical" name="LMAGBLOCH"> F  </i>
   <i type="logical" name="LCHIMAG"> F  </i>
   <i type="logical" name="LGAUGE"> T  </i>
   <i type="int" name="MAGATOM">     0</i>
   <v name="MAGDIPOL">      0.00000000      0.00000000      0.00000000</v>
   <v name="AVECCONST">      0.00000000      0.00000000      0.00000000</v>
  </separator>
  <separator name="response functions" >
   <i type="logical" name="LADDER"> F  </i>
   <i type="logical" name="LRPAFORCE"> F  </i>
   <i type="logical" name="LFXC"> F  </i>
   <i type="logical" name="LHARTREE"> T  </i>
   <i type="int" name="IBSE">     0</i>
   <v type="int" name="KPOINT">    -1     0     0     0</v>
   <i type="logical" name="LTCTE"> F  </i>
   <i type="logical" name="LTETE"> F  </i>
   <i type="logical" name="LTRIPLET"> F  </i>
   <i type="logical" name="LFXCEPS"> F  </i>
   <i type="logical" name="LFXHEG"> F  </i>
   <i type="int" name="NATURALO">     2</i>
   <i type="logical" name="L2ORDER"> F  </i>
   <i type="logical" name="LMP2LT"> F  </i>
   <i type="logical" name="LUSEW"> F  </i>
   <i name="ENCUTGW">     -2.00000000</i>
   <i name="ENCUTGWSOFT">     -2.00000000</i>
   <i name="ENCUTLF">     -1.00000000</i>
   <i type="int" name="LMAXMP2">    -1</i>
   <i name="SCISSOR">      0.00000000</i>
   <i type="int" name="NOMEGA">     0</i>
   <i type="int" name="NOMEGAR">     0</i>
   <i type="int" name="NBANDSGW">    -1</i>
   <i type="int" name="NBANDSO">    -1</i>
   <i type="int" name="NBANDSV">    -1</i>
   <i type="int" name="NELM">     1</i>
   <i type="int" name="NELMHF">     1</i>
   <i type="int" name="DIM">     3</i>
   <i type="int" name="ANTIRES">     0</i>
   <i name="OMEGAMAX">    -30.00000000</i>
   <i name="OMEGAMIN">    -30.00000000</i>
   <i name="OMEGATL">   -200.00000000</i>
   <i type="int" name="OMEGAGRID">   140</i>
   <i name="CSHIFT">     -0.10000000</i>
   <i type="logical" name="SELFENERGY"> F  </i>
   <i type="logical" name="LSPECTRAL"> F  </i>
   <i type="logical" name="LSPECTRALGW"> F  </i>
   <i type="logical" name="LSINGLES"> F  </i>
   <i type="logical" name="LFERMIGW"> F  </i>
   <i type="logical" name="ODDONLYGW"> F  </i>
   <i type="logical" name="EVENONLYGW"> F  </i>
   <i type="int" name="NKREDLFX">     1</i>
   <i type="int" name="NKREDLFY">     1</i>
   <i type="int" name="NKREDLFZ">     1</i>
   <i type="int" name="MAXMEM">  2800</i>
   <i type="int" name="TELESCOPE">     0</i>
   <i type="int" name="TAUPAR">     1</i>
   <i type="int" name="OMEGAPAR">    -1</i>
   <i name="LAMBDA">      1.00000000</i>
  </separator>
  <separator name="External order field" >
   <i name="OFIELD_KAPPA">      0.00000000</i>
   <v name="OFIELD_K">      0.00000000      0.00000000      0.00000000</v>
   <i name="OFIELD_Q6_NEAR">      0.00000000</i>
   <i name="OFIELD_Q6_FAR">      0.00000000</i>
   <i name="OFIELD_A">      0.00000000</i>
  </separator>
 </parameters>
 <atominfo>
  <atoms>      17 </atoms>
  <types>       4 </types>
  <array name="atoms" >
   <dimension dim="1">ion</dimension>
   <field type="string">element</field>
   <field type="int">atomtype</field>
   <set>
    <rc><c>Ir</c><c>   1</c></rc>
    <rc><c>Pt</c><c>   2</c></rc>
    <rc><c>Pt</c><c>   2</c></rc>
    <rc><c>Pt</c><c>   2</c></rc>
    <rc><c>Pt</c><c>   2</c></rc>
    <rc><c>Pt</c><c>   2</c></rc>
    <rc><c>Pt</c><c>   2</c></rc>
    <rc><c>Pt</c><c>   2</c></rc>
    <rc><c>Pt</c><c>   2</c></rc>
    <rc><c>Pt</c><c>   2</c></rc>
    <rc><c>Pt</c><c>   2</c></rc>
    <rc><c>Pt</c><c>   2</c></rc>
    <rc><c>Pt</c><c>   2</c></rc>
    <rc><c>Pt</c><c>   2</c></rc>
    <rc><c>Pt</c><c>   2</c></rc>
    <rc><c>Au</c><c>   3</c></rc>
    <rc><c>H </c><c>   4</c></rc>
   </set>
  </array>
  <array name="atomtypes" >
   <dimension dim="1">type</dimension>
   <field type="int">atomspertype</field>
   <field type="string">element</field>
   <field>mass</field>
   <field>valence</field>
   <field type="string">pseudopotential</field>
   <set>
    <rc><c>   1</c><c>Ir</c><c>    192.22000000</c><c>      9.00000000</c><c>  PAW_PBE Ir 06Sep2000                  </c></rc>
    <rc><c>  14</c><c>Pt</c><c>    195.08000000</c><c>     10.00000000</c><c>  PAW_PBE Pt 04Feb2005                  </c></rc>
    <rc><c>   1</c><c>Au</c><c>    196.96600000</c><c>     11.00000000</c><c>  PAW_PBE Au 04Oct2007                  </c></rc>
    <rc><c>   1</c><c>H </c><c>      1.00000000</c><c>      1.00000000</c><c>  PAW_PBE H 15Jun2001                   </c></rc>
   </set>
  </array>
 </atominfo>
 <structure name="initialpos" >
  <crystal>
   <varray name="basis" >
    <v>       5.55785930       0.00000000       0.00000000 </v>
    <v>       2.77892965       4.81324734       0.00000000 </v>
    <v>       0.00000000       0.00000000      30.80695967 </v>
   </varray>
   <i name="volume">    824.12780743 </i>
   <varray name="rec_basis" >
    <v>       0.17992539      -0.10387997       0.00000000 </v>
    <v>       0.00000000       0.20775994       0.00000000 </v>
    <v>       0.00000000       0.00000000       0.03246020 </v>
   </varray>
  </crystal>
  <varray name="positions" >
   <v>       0.00000000       0.00000000       0.38952237 </v>
   <v>       0.50000000       0.00000000       0.38952237 </v>
   <v>       0.00000000       0.50000000       0.38952237 </v>
   <v>       0.50000000       0.50000000       0.38952237 </v>
   <v>       0.16652883       0.16652883       0.46542487 </v>
   <v>       0.66694234       0.16652883       0.46542487 </v>
   <v>       0.16652883       0.66694234       0.46542487 </v>
   <v>       0.66666667       0.66666667       0.46426737 </v>
   <v>       0.83396869       0.33206261       0.54005199 </v>
   <v>       0.33333333       0.33333333       0.53994492 </v>
   <v>       0.83396869       0.83396869       0.54005199 </v>
   <v>       0.33206261       0.83396869       0.54005199 </v>
   <v>       0.00000000       0.00000000       0.61904352 </v>
   <v>       0.99902544       0.50048728       0.61498914 </v>
   <v>       0.50048728       0.50048728       0.61498914 </v>
   <v>       0.50048728       0.99902544       0.61498914 </v>
   <v>       0.00000000       0.00000000       0.66953436 </v>
  </varray>
  <varray name="selective"  type="logical" >
   <v type="logical" >  F  F  F </v>
   <v type="logical" >  F  F  F </v>
   <v type="logical" >  F  F  F </v>
   <v type="logical" >  F  F  F </v>
   <v type="logical" >  T  T  T </v>
   <v type="logical" >  T  T  T </v>
   <v type="logical" >  T  T  T </v>
   <v type="logical" >  T  T  T </v>
   <v type="logical" >  T  T  T </v>
   <v type="logical" >  T  T  T </v>
   <v type="logical" >  T  T  T </v>
   <v type="logical" >  T  T  T </v>
   <v type="logical" >  T  T  T </v>
   <v type="logical" >  T  T  T </v>
   <v type="logical" >  T  T  T </v>
   <v type="logical" >  T  T  T </v>
   <v type="logical" >  T  T  T </v>
  </varray>
  <nose>
   <v>      -3.00000000       0.00000000       0.00010000       0.00010000 </v>
  </nose>
 </structure>
 <calculation>
  <scstep>
   <time name="dav">    9.19    9.19</time>
   <time name="total">    9.21    9.22</time>
   <energy>
    <i name="alphaZ">    305.89839443 </i>
    <i name="ewald">  98604.44224264 </i>
    <i name="hartreedc">-110691.80483528 </i>
    <i name="XCdc">     48.78042592 </i>
    <i name="pawpsdc">  11173.35063782 </i>
    <i name="pawaedc"> -10713.98924482 </i>
    <i name="eentropy">      0.00807678 </i>
    <i name="bandstr">    547.20437856 </i>
    <i name="atom">  11706.16234457 </i>
    <i name="e_fr_energy">    980.05242061 </i>
    <i name="e_wo_entrp">    980.04434383 </i>
    <i name="e_0_energy">    980.04972835 </i>
   </energy>
  </scstep>
  <scstep>
   <time name="dav">   13.08   13.08</time>
   <time name="total">   13.08   13.08</time>
   <energy>
    <i name="e_fr_energy">    -42.51037596 </i>
    <i name="e_wo_entrp">    -42.50492217 </i>
    <i name="e_0_energy">    -42.50855803 </i>
   </energy>
  </scstep>
  <scstep>
   <time name="dav">   11.28   11.28</time>
   <time name="total">   11.28   11.28</time>
   <energy>
    <i name="e_fr_energy">   -101.24078852 </i>
    <i name="e_wo_entrp">   -101.21322640 </i>
    <i name="e_0_energy">   -101.23160114 </i>
   </energy>
  </scstep>
  <scstep>
   <time name="dav">   12.73   12.74</time>
   <time name="total">   12.73   12.74</time>
   <energy>
    <i name="e_fr_energy">   -102.51174349 </i>
    <i name="e_wo_entrp">   -102.48439672 </i>
    <i name="e_0_energy">   -102.50262790 </i>
   </energy>
  </scstep>
  <scstep>
   <time name="dav">   13.38   13.39</time>
   <time name="total">   13.71   13.71</time>
   <energy>
    <i name="e_fr_energy">   -102.54381919 </i>
    <i name="e_wo_entrp">   -102.51650594 </i>
    <i name="e_0_energy">   -102.53471478 </i>
   </energy>
  </scstep>
  <scstep>
   <time name="dav">   10.87   10.87</time>
   <time name="total">   11.21   11.22</time>
   <energy>
    <i name="e_fr_energy">    -98.33209427 </i>
    <i name="e_wo_entrp">    -98.32145660 </i>
    <i name="e_0_energy">    -98.32854838 </i>
   </energy>
  </scstep>
  <scstep>
   <time name="dav">   13.28   13.28</time>
   <time name="total">   13.62   13.62</time>
   <energy>
    <i name="e_fr_energy">   -133.47100270 </i>
    <i name="e_wo_entrp">   -133.48509779 </i>
    <i name="e_0_energy">   -133.47570106 </i>
   </energy>
  </scstep>
  <scstep>
   <time name="dav">   13.94   13.94</time>
   <time name="total">   14.28   14.28</time>
   <energy>
    <i name="e_fr_energy">   -110.39509991 </i>
    <i name="e_wo_entrp">   -110.37736872 </i>
    <i name="e_0_energy">   -110.38918951 </i>
   </energy>
  </scstep>
  <scstep>
   <time name="dav">   11.90   11.90</time>
   <time name="total">   12.24   12.24</time>
   <energy>
    <i name="e_fr_energy">   -105.41144923 </i>
    <i name="e_wo_entrp">   -105.43129887 </i>
    <i name="e_0_energy">   -105.41806578 </i>
   </energy>
  </scstep>
  <scstep>
   <time name="dav">   13.90   13.90</time>
   <time name="total">   14.24   14.24</time>
   <energy>
    <i name="e_fr_energy">   -107.12073889 </i>
    <i name="e_wo_entrp">   -107.08638532 </i>
    <i name="e_0_energy">   -107.10928770 </i>
   </energy>
  </scstep>
  <scstep>
   <time name="dav">   12.73   12.73</time>
   <time name="total">   13.07   13.08</time>
   <energy>
    <i name="e_fr_energy">    -96.82136618 </i>
    <i name="e_wo_entrp">    -96.76933241 </i>
    <i name="e_0_energy">    -96.80402159 </i>
   </energy>
  </scstep>
  <scstep>
   <time name="dav">   13.19   13.20</time>
   <time name="total">   13.53   13.54</time>
   <energy>
    <i name="e_fr_energy">    -97.33226255 </i>
    <i name="e_wo_entrp">    -97.30693878 </i>
    <i name="e_0_energy">    -97.32382129 </i>
   </energy>
  </scstep>
  <scstep>
   <time name="dav">   12.22   12.23</time>
   <time name="total">   12.56   12.57</time>
   <energy>
    <i name="e_fr_energy">    -95.97896920 </i>
    <i name="e_wo_entrp">    -95.94138962 </i>
    <i name="e_0_energy">    -95.96644267 </i>
   </energy>
  </scstep>
  <scstep>
   <time name="dav">   10.79   10.79</time>
   <time name="total">   11.13   11.14</time>
   <energy>
    <i name="e_fr_energy">    -95.88435975 </i>
    <i name="e_wo_entrp">    -95.85249663 </i>
    <i name="e_0_energy">    -95.87373871 </i>
   </energy>
  </scstep>
  <scstep>
   <time name="dav">   11.03   11.03</time>
   <time name="total">   11.37   11.37</time>
   <energy>
    <i name="e_fr_energy">    -95.88563005 </i>
    <i name="e_wo_entrp">    -95.85352084 </i>
    <i name="e_0_energy">    -95.87492698 </i>
   </energy>
  </scstep>
  <scstep>
   <time name="dav">   12.95   12.95</time>
   <time name="total">   13.29   13.29</time>
   <energy>
    <i name="e_fr_energy">    -95.86051899 </i>
    <i name="e_wo_entrp">    -95.82870715 </i>
    <i name="e_0_energy">    -95.84991504 </i>
   </energy>
  </scstep>
  <scstep>
   <time name="dav">   11.06   11.06</time>
   <time name="total">   11.40   11.40</time>
   <energy>
    <i name="e_fr_energy">    -95.83102795 </i>
    <i name="e_wo_entrp">    -95.79668809 </i>
    <i name="e_0_energy">    -95.81958133 </i>
   </energy>
  </scstep>
  <scstep>
   <time name="dav">   10.91   10.92</time>
   <time name="total">   11.25   11.26</time>
   <energy>
    <i name="e_fr_energy">    -95.82386021 </i>
    <i name="e_wo_entrp">    -95.78974923 </i>
    <i name="e_0_energy">    -95.81248989 </i>
   </energy>
  </scstep>
  <scstep>
   <time name="dav">   10.81   10.81</time>
   <time name="total">   11.15   11.15</time>
   <energy>
    <i name="e_fr_energy">    -95.82103722 </i>
    <i name="e_wo_entrp">    -95.78592435 </i>
    <i name="e_0_energy">    -95.80933293 </i>
   </energy>
  </scstep>
  <scstep>
   <time name="dav">   11.13   11.13</time>
   <time name="total">   11.47   11.47</time>
   <energy>
    <i name="e_fr_energy">    -95.81655645 </i>
    <i name="e_wo_entrp">    -95.78244714 </i>
    <i name="e_0_energy">    -95.80518668 </i>
   </energy>
  </scstep>
  <scstep>
   <time name="dav">   10.53   10.53</time>
   <time name="total">   10.87   10.87</time>
   <energy>
    <i name="e_fr_energy">    -95.81483417 </i>
    <i name="e_wo_entrp">    -95.77973815 </i>
    <i name="e_0_energy">    -95.80313550 </i>
   </energy>
  </scstep>
  <scstep>
   <time name="dav">   12.42   12.42</time>
   <time name="total">   12.76   12.77</time>
   <energy>
    <i name="e_fr_energy">    -95.81436860 </i>
    <i name="e_wo_entrp">    -95.77927210 </i>
    <i name="e_0_energy">    -95.80266977 </i>
   </energy>
  </scstep>
  <scstep>
   <time name="dav">   12.70   12.70</time>
   <time name="total">   13.04   13.05</time>
   <energy>
    <i name="e_fr_energy">    -95.81365535 </i>
    <i name="e_wo_entrp">    -95.77840291 </i>
    <i name="e_0_energy">    -95.80190453 </i>
   </energy>
  </scstep>
  <scstep>
   <time name="dav">   13.39   13.39</time>
   <time name="total">   13.73   13.73</time>
   <energy>
    <i name="e_fr_energy">    -95.81256947 </i>
    <i name="e_wo_entrp">    -95.77667132 </i>
    <i name="e_0_energy">    -95.80060342 </i>
   </energy>
  </scstep>
  <scstep>
   <time name="dav">   13.04   13.04</time>
   <time name="total">   13.38   13.39</time>
   <energy>
    <i name="e_fr_energy">    -95.81238968 </i>
    <i name="e_wo_entrp">    -95.77639067 </i>
    <i name="e_0_energy">    -95.80039001 </i>
   </energy>
  </scstep>
  <scstep>
   <time name="dav">   10.54   10.55</time>
   <time name="total">   10.88   10.89</time>
   <energy>
    <i name="e_fr_energy">    -95.81238793 </i>
    <i name="e_wo_entrp">    -95.77629398 </i>
    <i name="e_0_energy">    -95.80035661 </i>
   </energy>
  </scstep>
  <scstep>
   <time name="dav">   11.02   11.02</time>
   <time name="total">   11.36   11.37</time>
   <energy>
    <i name="e_fr_energy">    -95.81232228 </i>
    <i name="e_wo_entrp">    -95.77593729 </i>
    <i name="e_0_energy">    -95.80019395 </i>
   </energy>
  </scstep>
  <scstep>
   <time name="dav">    9.16    9.16</time>
   <time name="total">    9.50    9.50</time>
   <energy>
    <i name="e_fr_energy">    -95.81237581 </i>
    <i name="e_wo_entrp">    -95.77584147 </i>
    <i name="e_0_energy">    -95.80019769 </i>
   </energy>
  </scstep>
  <scstep>
   <time name="dav">    7.90    7.90</time>
   <time name="total">    8.24    8.24</time>
   <energy>
    <i name="e_fr_energy">    -95.81241850 </i>
    <i name="e_wo_entrp">    -95.77587825 </i>
    <i name="e_0_energy">    -95.80023841 </i>
   </energy>
  </scstep>
  <scstep>
   <time name="dav">    7.77    7.77</time>
   <time name="total">    8.11    8.11</time>
   <energy>
    <i name="e_fr_energy">    -95.81246989 </i>
    <i name="e_wo_entrp">    -95.77589203 </i>
    <i name="e_0_energy">    -95.80027727 </i>
   </energy>
  </scstep>
  <scstep>
   <time name="dav">    7.79    7.79</time>
   <time name="total">    8.14    8.15</time>
   <energy>
    <i name="e_fr_energy">    -95.81250502 </i>
    <i name="e_wo_entrp">    -95.77593335 </i>
    <i name="e_0_energy">    -95.80031446 </i>
   </energy>
  </scstep>
  <scstep>
   <time name="dav">    7.64    7.64</time>
   <time name="total">    7.98    7.98</time>
   <energy>
    <i name="e_fr_energy">    -95.81253068 </i>
    <i name="e_wo_entrp">    -95.77598678 </i>
    <i name="e_0_energy">    -95.80034938 </i>
   </energy>
  </scstep>
  <scstep>
   <time name="dav">    7.59    7.59</time>
   <time name="total">    7.93    7.93</time>
   <energy>
    <i name="e_fr_energy">    -95.81257928 </i>
    <i name="e_wo_entrp">    -95.77603309 </i>
    <i name="e_0_energy">    -95.80039721 </i>
   </energy>
  </scstep>
  <scstep>
   <time name="dav">    7.76    7.76</time>
   <time name="total">    7.78    7.78</time>
   <energy>
    <i name="alphaZ">    305.89839443 </i>
    <i name="ewald">  98604.44224264 </i>
    <i name="hartreedc">-110534.26532030 </i>
    <i name="XCdc">     43.34809028 </i>
    <i name="pawpsdc">  14215.33814916 </i>
    <i name="pawaedc"> -13800.94862896 </i>
    <i name="eentropy">     -0.03653854 </i>
    <i name="bandstr">   -635.75131799 </i>
    <i name="atom">  11706.16234457 </i>
    <i name="e_fr_energy">    -95.81258470 </i>
    <i name="e_wo_entrp">    -95.77604616 </i>
    <i name="e_0_energy">    -95.80040519 </i>
   </energy>
  </scstep>
  <dipole>
   <v name="dipole">      0.00000000       0.00000000      -0.05692191 </v>
   <i name="Tr[quadrupol]">   -957.65344625 </i>
   <i name="Echarged">      0.00000000 </i>
   <i name="Edipol_quadrupol">      0.00000000 </i>
   <i name="Eion">      0.00000000 </i>
  </dipole>
  <structure>
   <crystal>
    <varray name="basis" >
     <v>       5.55785930       0.00000000       0.00000000 </v>
     <v>       2.77892965       4.81324734       0.00000000 </v>
     <v>       0.00000000       0.00000000      30.80695967 </v>
    </varray>
    <i name="volume">    824.12780743 </i>
    <varray name="rec_basis" >
     <v>       0.17992539      -0.10387997       0.00000000 </v>
     <v>       0.00000000       0.20775994       0.00000000 </v>
     <v>       0.00000000       0.00000000       0.03246020 </v>
    </varray>
   </crystal>
   <varray name="positions" >
    <v>       0.00000000       0.00000000       0.38952237 </v>
    <v>       0.50000000       0.00000000       0.38952237 </v>
    <v>       0.00000000       0.50000000       0.38952237 </v>
    <v>       0.50000000       0.50000000       0.38952237 </v>
    <v>       0.16652883       0.16652883       0.46542487 </v>
    <v>       0.66694234       0.16652883       0.46542487 </v>
    <v>       0.16652883       0.66694234       0.46542487 </v>
    <v>       0.66666667       0.66666667       0.46426737 </v>
    <v>       0.83396869       0.33206261       0.54005199 </v>
    <v>       0.33333333       0.33333333       0.53994492 </v>
    <v>       0.83396869       0.83396869       0.54005199 </v>
    <v>       0.33206261       0.83396869       0.54005199 </v>
    <v>       0.00000000       0.00000000       0.61904352 </v>
    <v>       0.99902544       0.50048728       0.61498914 </v>
    <v>       0.50048728       0.50048728       0.61498914 </v>
    <v>       0.50048728       0.99902544       0.61498914 </v>
    <v>       0.00000000       0.00000000       0.66953436 </v>
   </varray>
  </structure>
  <varray name="forces" >
   <v>      -0.00000000       0.04226922       1.18825829 </v>
   <v>      -0.00000000       0.13069936      -0.13804663 </v>
   <v>       0.09263213      -0.09078927      -0.13320737 </v>
   <v>      -0.09263213      -0.09078927      -0.13320737 </v>
   <v>      -0.10278046      -0.06570337      -0.25596970 </v>
   <v>       0.10278046      -0.06570337      -0.25596970 </v>
   <v>      -0.00000000       0.13680604      -0.52452570 </v>
   <v>      -0.00000000       0.00637130       0.11011681 </v>
   <v>      -0.00000000       0.00737945       0.16530797 </v>
   <v>       0.00000000       0.12319212      -0.38636679 </v>
   <v>       0.13088800      -0.12597349      -0.14234067 </v>
   <v>      -0.13088800      -0.12597349      -0.14234067 </v>
   <v>       0.00000000       0.05496165      -0.09392402 </v>
   <v>       0.01220939      -0.01933643      -0.19356392 </v>
   <v>      -0.01220939      -0.01933643      -0.19356392 </v>
   <v>      -0.00000000       0.10242188       1.07728343 </v>
   <v>      -0.00000000      -0.00049589       0.05205996 </v>
  </varray>
  <varray name="stress" >
   <v>     -21.92181638       0.00000000       0.00000000 </v>
   <v>       0.00000000     -22.16814074       0.56550868 </v>
   <v>       0.00000000       0.56550912      -2.41118234 </v>
  </varray>
  <energy>
   <i name="e_fr_energy">    -95.81222899 </i>
   <i name="e_wo_entrp">    -95.80004948 </i>
   <i name="e_0_energy">     -0.03653854 </i>
  </energy>
  <time name="totalsc">  402.84  402.96</time>
  <eigenvalues>
   <array>
    <dimension dim="1">band</dimension>
    <dimension dim="2">kpoint</dimension>
    <dimension dim="3">spin</dimension>
    <field>eigene</field>
    <field>occ</field>
    <set>
     <set comment="spin 1">
      <set comment="kpoint 1">
       <r>  -10.0765    1.0000 </r>
       <r>   -8.8500    1.0000 </r>
       <r>   -7.7879    1.0000 </r>
       <r>   -7.6237    1.0000 </r>
       <r>   -7.3652    1.0000 </r>
       <r>   -7.3254    1.0000 </r>
       <r>   -7.3101    1.0000 </r>
       <r>   -7.2056    1.0000 </r>
       <r>   -7.1728    1.0000 </r>
       <r>   -7.1479    1.0000 </r>
       <r>   -6.8027    1.0000 </r>
       <r>   -6.7264    1.0000 </r>
       <r>   -6.7129    1.0000 </r>
       <r>   -6.7005    1.0000 </r>
       <r>   -6.6887    1.0000 </r>
       <r>   -6.5039    1.0000 </r>
       <r>   -6.4625    1.0000 </r>
       <r>   -6.4206    1.0000 </r>
       <r>   -6.3775    1.0000 </r>
       <r>   -5.9431    1.0000 </r>
       <r>   -5.7085    1.0000 </r>
       <r>   -5.6147    1.0000 </r>
       <r>   -5.5583    1.0000 </r>
       <r>   -4.8482    1.0000 </r>
       <r>   -4.7888    1.0000 </r>
       <r>   -4.7415    1.0000 </r>
       <r>   -4.5803    1.0000 </r>
       <r>   -4.5577    1.0000 </r>
       <r>   -4.5489    1.0000 </r>
       <r>   -4.5078    1.0000 </r>
       <r>   -4.2899    1.0000 </r>
       <r>   -4.2507    1.0000 </r>
       <r>   -4.2084    1.0000 </r>
       <r>   -4.0949    1.0000 </r>
       <r>   -4.0787    1.0000 </r>
       <r>   -3.9889    1.0000 </r>
       <r>   -3.9474    1.0000 </r>
       <r>   -3.9034    1.0000 </r>
       <r>   -3.8501    1.0000 </r>
       <r>   -3.8119    1.0000 </r>
       <r>   -3.7446    1.0000 </r>
       <r>   -3.6013    1.0000 </r>
       <r>   -3.5687    1.0000 </r>
       <r>   -3.3906    1.0000 </r>
       <r>   -3.3722    1.0000 </r>
       <r>   -3.1371    1.0000 </r>
       <r>   -3.0910    1.0000 </r>
       <r>   -2.8940    1.0000 </r>
       <r>   -2.8664    1.0000 </r>
       <r>   -2.7880    1.0000 </r>
       <r>   -2.6881    1.0000 </r>
       <r>   -2.3899    1.0000 </r>
       <r>   -2.2860    1.0000 </r>
       <r>   -2.2364    1.0000 </r>
       <r>   -2.0748    1.0000 </r>
       <r>   -2.0216    1.0000 </r>
       <r>   -1.7924    1.0000 </r>
       <r>   -1.7378    1.0000 </r>
       <r>   -1.7183    1.0000 </r>
       <r>   -1.6472    1.0000 </r>
       <r>   -1.5441    1.0000 </r>
       <r>   -1.5204    1.0000 </r>
       <r>   -1.2787    1.0003 </r>
       <r>   -1.1541    1.0046 </r>
       <r>   -1.0967    1.0118 </r>
       <r>   -1.0603    1.0190 </r>
       <r>   -1.0376    1.0242 </r>
       <r>   -0.9714    1.0354 </r>
       <r>   -0.9118    1.0187 </r>
       <r>   -0.8763    0.9819 </r>
       <r>   -0.7910    0.7726 </r>
       <r>   -0.7487    0.6105 </r>
       <r>   -0.7021    0.4150 </r>
       <r>   -0.6599    0.2495 </r>
       <r>   -0.6357    0.1689 </r>
       <r>   -0.6130    0.1053 </r>
       <r>   -0.5684    0.0181 </r>
       <r>   -0.4414   -0.0316 </r>
       <r>   -0.4298   -0.0293 </r>
       <r>   -0.4021   -0.0230 </r>
       <r>   -0.2640   -0.0028 </r>
       <r>   -0.1898   -0.0005 </r>
       <r>   -0.1469   -0.0002 </r>
       <r>   -0.0124   -0.0000 </r>
       <r>    0.0673   -0.0000 </r>
       <r>    0.1726   -0.0000 </r>
       <r>    0.4075   -0.0000 </r>
       <r>    0.4789   -0.0000 </r>
       <r>    1.2614   -0.0000 </r>
       <r>    1.4445   -0.0000 </r>
       <r>    1.6831   -0.0000 </r>
       <r>    1.6956   -0.0000 </r>
       <r>    1.7873   -0.0000 </r>
       <r>    1.8035   -0.0000 </r>
       <r>    2.4748   -0.0000 </r>
       <r>    2.6459   -0.0000 </r>
      </set>
      <set comment="kpoint 2">
       <r>  -10.0765    1.0000 </r>
       <r>   -8.8500    1.0000 </r>
       <r>   -7.7879    1.0000 </r>
       <r>   -7.6237    1.0000 </r>
       <r>   -7.3658    1.0000 </r>
       <r>   -7.3218    1.0000 </r>
       <r>   -7.3129    1.0000 </r>
       <r>   -7.2079    1.0000 </r>
       <r>   -7.1648    1.0000 </r>
       <r>   -7.1537    1.0000 </r>
       <r>   -6.8042    1.0000 </r>
       <r>   -6.7173    1.0000 </r>
       <r>   -6.7170    1.0000 </r>
       <r>   -6.7048    1.0000 </r>
       <r>   -6.6860    1.0000 </r>
       <r>   -6.5072    1.0000 </r>
       <r>   -6.4618    1.0000 </r>
       <r>   -6.4118    1.0000 </r>
       <r>   -6.3861    1.0000 </r>
       <r>   -5.9428    1.0000 </r>
       <r>   -5.7094    1.0000 </r>
       <r>   -5.6141    1.0000 </r>
       <r>   -5.5573    1.0000 </r>
       <r>   -4.8520    1.0000 </r>
       <r>   -4.7869    1.0000 </r>
       <r>   -4.7414    1.0000 </r>
       <r>   -4.5825    1.0000 </r>
       <r>   -4.5549    1.0000 </r>
       <r>   -4.5457    1.0000 </r>
       <r>   -4.5095    1.0000 </r>
       <r>   -4.2897    1.0000 </r>
       <r>   -4.2460    1.0000 </r>
       <r>   -4.2128    1.0000 </r>
       <r>   -4.0905    1.0000 </r>
       <r>   -4.0829    1.0000 </r>
       <r>   -3.9810    1.0000 </r>
       <r>   -3.9577    1.0000 </r>
       <r>   -3.8964    1.0000 </r>
       <r>   -3.8520    1.0000 </r>
       <r>   -3.8145    1.0000 </r>
       <r>   -3.7419    1.0000 </r>
       <r>   -3.6010    1.0000 </r>
       <r>   -3.5701    1.0000 </r>
       <r>   -3.3995    1.0000 </r>
       <r>   -3.3710    1.0000 </r>
       <r>   -3.1387    1.0000 </r>
       <r>   -3.0710    1.0000 </r>
       <r>   -2.8929    1.0000 </r>
       <r>   -2.8884    1.0000 </r>
       <r>   -2.8037    1.0000 </r>
       <r>   -2.6637    1.0000 </r>
       <r>   -2.3788    1.0000 </r>
       <r>   -2.2781    1.0000 </r>
       <r>   -2.2452    1.0000 </r>
       <r>   -2.0709    1.0000 </r>
       <r>   -2.0361    1.0000 </r>
       <r>   -1.7704    1.0000 </r>
       <r>   -1.7557    1.0000 </r>
       <r>   -1.7254    1.0000 </r>
       <r>   -1.6581    1.0000 </r>
       <r>   -1.5496    1.0000 </r>
       <r>   -1.5347    1.0000 </r>
       <r>   -1.2216    1.0012 </r>
       <r>   -1.1971    1.0020 </r>
       <r>   -1.1021    1.0109 </r>
       <r>   -1.0341    1.0250 </r>
       <r>   -1.0338    1.0250 </r>
       <r>   -0.9733    1.0353 </r>
       <r>   -0.9270    1.0274 </r>
       <r>   -0.8757    0.9811 </r>
       <r>   -0.8050    0.8189 </r>
       <r>   -0.7200    0.4902 </r>
       <r>   -0.7141    0.4654 </r>
       <r>   -0.6454    0.1998 </r>
       <r>   -0.6374    0.1740 </r>
       <r>   -0.6110    0.1003 </r>
       <r>   -0.5712    0.0222 </r>
       <r>   -0.4416   -0.0316 </r>
       <r>   -0.4283   -0.0290 </r>
       <r>   -0.3944   -0.0213 </r>
       <r>   -0.2620   -0.0027 </r>
       <r>   -0.1753   -0.0004 </r>
       <r>   -0.1574   -0.0002 </r>
       <r>   -0.0295   -0.0000 </r>
       <r>    0.0431   -0.0000 </r>
       <r>    0.1805   -0.0000 </r>
       <r>    0.4510   -0.0000 </r>
       <r>    0.4550   -0.0000 </r>
       <r>    1.2580   -0.0000 </r>
       <r>    1.4593   -0.0000 </r>
       <r>    1.6741   -0.0000 </r>
       <r>    1.6848   -0.0000 </r>
       <r>    1.7610   -0.0000 </r>
       <r>    1.8373   -0.0000 </r>
       <r>    2.4705   -0.0000 </r>
       <r>    2.6490   -0.0000 </r>
      </set>
      <set comment="kpoint 3">
       <r>   -9.8730    1.0000 </r>
       <r>   -8.6503    1.0000 </r>
       <r>   -7.5845    1.0000 </r>
       <r>   -7.4285    1.0000 </r>
       <r>   -7.3355    1.0000 </r>
       <r>   -7.2553    1.0000 </r>
       <r>   -7.1377    1.0000 </r>
       <r>   -7.1109    1.0000 </r>
       <r>   -7.0634    1.0000 </r>
       <r>   -6.9820    1.0000 </r>
       <r>   -6.7022    1.0000 </r>
       <r>   -6.6463    1.0000 </r>
       <r>   -6.6065    1.0000 </r>
       <r>   -6.6019    1.0000 </r>
       <r>   -6.5725    1.0000 </r>
       <r>   -6.3902    1.0000 </r>
       <r>   -6.3453    1.0000 </r>
       <r>   -6.2798    1.0000 </r>
       <r>   -6.1971    1.0000 </r>
       <r>   -5.9001    1.0000 </r>
       <r>   -5.6439    1.0000 </r>
       <r>   -5.5615    1.0000 </r>
       <r>   -5.5100    1.0000 </r>
       <r>   -4.8459    1.0000 </r>
       <r>   -4.8236    1.0000 </r>
       <r>   -4.7575    1.0000 </r>
       <r>   -4.5853    1.0000 </r>
       <r>   -4.5444    1.0000 </r>
       <r>   -4.4942    1.0000 </r>
       <r>   -4.4856    1.0000 </r>
       <r>   -4.4207    1.0000 </r>
       <r>   -4.3506    1.0000 </r>
       <r>   -4.0794    1.0000 </r>
       <r>   -4.0658    1.0000 </r>
       <r>   -4.0510    1.0000 </r>
       <r>   -3.9963    1.0000 </r>
       <r>   -3.9465    1.0000 </r>
       <r>   -3.8983    1.0000 </r>
       <r>   -3.8832    1.0000 </r>
       <r>   -3.7911    1.0000 </r>
       <r>   -3.7683    1.0000 </r>
       <r>   -3.6607    1.0000 </r>
       <r>   -3.5391    1.0000 </r>
       <r>   -3.5309    1.0000 </r>
       <r>   -3.4223    1.0000 </r>
       <r>   -3.4068    1.0000 </r>
       <r>   -3.2923    1.0000 </r>
       <r>   -3.0775    1.0000 </r>
       <r>   -2.9250    1.0000 </r>
       <r>   -2.8190    1.0000 </r>
       <r>   -2.7307    1.0000 </r>
       <r>   -2.6319    1.0000 </r>
       <r>   -2.4133    1.0000 </r>
       <r>   -2.3178    1.0000 </r>
       <r>   -2.2280    1.0000 </r>
       <r>   -2.0493    1.0000 </r>
       <r>   -1.9420    1.0000 </r>
       <r>   -1.9152    1.0000 </r>
       <r>   -1.8704    1.0000 </r>
       <r>   -1.7855    1.0000 </r>
       <r>   -1.7301    1.0000 </r>
       <r>   -1.6705    1.0000 </r>
       <r>   -1.6135    1.0000 </r>
       <r>   -1.5405    1.0000 </r>
       <r>   -1.4990    1.0000 </r>
       <r>   -1.3849    1.0000 </r>
       <r>   -1.2763    1.0003 </r>
       <r>   -1.2251    1.0011 </r>
       <r>   -1.1026    1.0109 </r>
       <r>   -1.0604    1.0190 </r>
       <r>   -1.0014    1.0319 </r>
       <r>   -0.9528    1.0346 </r>
       <r>   -0.9220    1.0249 </r>
       <r>   -0.8599    0.9556 </r>
       <r>   -0.7978    0.7957 </r>
       <r>   -0.7661    0.6803 </r>
       <r>   -0.7467    0.6023 </r>
       <r>   -0.7108    0.4512 </r>
       <r>   -0.6373    0.1737 </r>
       <r>   -0.5889    0.0521 </r>
       <r>   -0.5238   -0.0243 </r>
       <r>   -0.4910   -0.0347 </r>
       <r>   -0.3746   -0.0169 </r>
       <r>   -0.2786   -0.0037 </r>
       <r>   -0.1087   -0.0001 </r>
       <r>    0.2488   -0.0000 </r>
       <r>    0.3212   -0.0000 </r>
       <r>    0.6006   -0.0000 </r>
       <r>    0.8879   -0.0000 </r>
       <r>    1.0736   -0.0000 </r>
       <r>    1.3399   -0.0000 </r>
       <r>    1.6230   -0.0000 </r>
       <r>    2.2100   -0.0000 </r>
       <r>    2.4956   -0.0000 </r>
       <r>    2.7868   -0.0000 </r>
       <r>    3.1025   -0.0000 </r>
      </set>
      <set comment="kpoint 4">
       <r>   -9.8730    1.0000 </r>
       <r>   -8.6504    1.0000 </r>
       <r>   -7.5849    1.0000 </r>
       <r>   -7.4285    1.0000 </r>
       <r>   -7.3357    1.0000 </r>
       <r>   -7.2540    1.0000 </r>
       <r>   -7.1380    1.0000 </r>
       <r>   -7.1140    1.0000 </r>
       <r>   -7.0578    1.0000 </r>
       <r>   -6.9847    1.0000 </r>
       <r>   -6.7101    1.0000 </r>
       <r>   -6.6372    1.0000 </r>
       <r>   -6.6109    1.0000 </r>
       <r>   -6.6020    1.0000 </r>
       <r>   -6.5605    1.0000 </r>
       <r>   -6.3975    1.0000 </r>
       <r>   -6.3301    1.0000 </r>
       <r>   -6.2948    1.0000 </r>
       <r>   -6.2025    1.0000 </r>
       <r>   -5.8976    1.0000 </r>
       <r>   -5.6467    1.0000 </r>
       <r>   -5.5601    1.0000 </r>
       <r>   -5.5050    1.0000 </r>
       <r>   -4.8762    1.0000 </r>
       <r>   -4.8029    1.0000 </r>
       <r>   -4.7540    1.0000 </r>
       <r>   -4.5858    1.0000 </r>
       <r>   -4.5344    1.0000 </r>
       <r>   -4.5005    1.0000 </r>
       <r>   -4.4777    1.0000 </r>
       <r>   -4.4248    1.0000 </r>
       <r>   -4.3496    1.0000 </r>
       <r>   -4.0846    1.0000 </r>
       <r>   -4.0590    1.0000 </r>
       <r>   -4.0491    1.0000 </r>
       <r>   -3.9932    1.0000 </r>
       <r>   -3.9301    1.0000 </r>
       <r>   -3.8907    1.0000 </r>
       <r>   -3.8811    1.0000 </r>
       <r>   -3.8177    1.0000 </r>
       <r>   -3.7715    1.0000 </r>
       <r>   -3.6675    1.0000 </r>
       <r>   -3.5488    1.0000 </r>
       <r>   -3.5222    1.0000 </r>
       <r>   -3.4326    1.0000 </r>
       <r>   -3.4135    1.0000 </r>
       <r>   -3.2496    1.0000 </r>
       <r>   -3.1044    1.0000 </r>
       <r>   -2.9116    1.0000 </r>
       <r>   -2.8585    1.0000 </r>
       <r>   -2.7011    1.0000 </r>
       <r>   -2.6037    1.0000 </r>
       <r>   -2.3906    1.0000 </r>
       <r>   -2.3654    1.0000 </r>
       <r>   -2.2081    1.0000 </r>
       <r>   -2.0980    1.0000 </r>
       <r>   -1.9536    1.0000 </r>
       <r>   -1.9199    1.0000 </r>
       <r>   -1.8360    1.0000 </r>
       <r>   -1.7896    1.0000 </r>
       <r>   -1.7286    1.0000 </r>
       <r>   -1.6942    1.0000 </r>
       <r>   -1.6149    1.0000 </r>
       <r>   -1.5819    1.0000 </r>
       <r>   -1.4806    1.0000 </r>
       <r>   -1.4202    1.0000 </r>
       <r>   -1.2199    1.0012 </r>
       <r>   -1.1981    1.0020 </r>
       <r>   -1.0922    1.0126 </r>
       <r>   -1.0623    1.0186 </r>
       <r>   -1.0121    1.0299 </r>
       <r>   -0.9556    1.0349 </r>
       <r>   -0.9278    1.0277 </r>
       <r>   -0.8646    0.9637 </r>
       <r>   -0.8185    0.8595 </r>
       <r>   -0.7631    0.6685 </r>
       <r>   -0.7238    0.5062 </r>
       <r>   -0.6920    0.3734 </r>
       <r>   -0.6691    0.2832 </r>
       <r>   -0.5793    0.0350 </r>
       <r>   -0.4819   -0.0354 </r>
       <r>   -0.4764   -0.0355 </r>
       <r>   -0.4014   -0.0229 </r>
       <r>   -0.2915   -0.0047 </r>
       <r>   -0.0975   -0.0000 </r>
       <r>    0.2552   -0.0000 </r>
       <r>    0.3221   -0.0000 </r>
       <r>    0.5976   -0.0000 </r>
       <r>    0.8926   -0.0000 </r>
       <r>    1.0756   -0.0000 </r>
       <r>    1.3387   -0.0000 </r>
       <r>    1.6166   -0.0000 </r>
       <r>    2.2080   -0.0000 </r>
       <r>    2.4882   -0.0000 </r>
       <r>    2.7842   -0.0000 </r>
       <r>    3.1070   -0.0000 </r>
      </set>
      <set comment="kpoint 5">
       <r>   -9.8730    1.0000 </r>
       <r>   -8.6505    1.0000 </r>
       <r>   -7.5853    1.0000 </r>
       <r>   -7.4287    1.0000 </r>
       <r>   -7.3348    1.0000 </r>
       <r>   -7.2537    1.0000 </r>
       <r>   -7.1383    1.0000 </r>
       <r>   -7.1162    1.0000 </r>
       <r>   -7.0532    1.0000 </r>
       <r>   -6.9879    1.0000 </r>
       <r>   -6.7082    1.0000 </r>
       <r>   -6.6388    1.0000 </r>
       <r>   -6.6108    1.0000 </r>
       <r>   -6.6019    1.0000 </r>
       <r>   -6.5555    1.0000 </r>
       <r>   -6.4033    1.0000 </r>
       <r>   -6.3306    1.0000 </r>
       <r>   -6.2855    1.0000 </r>
       <r>   -6.2125    1.0000 </r>
       <r>   -5.8957    1.0000 </r>
       <r>   -5.6493    1.0000 </r>
       <r>   -5.5585    1.0000 </r>
       <r>   -5.5020    1.0000 </r>
       <r>   -4.8802    1.0000 </r>
       <r>   -4.8130    1.0000 </r>
       <r>   -4.7438    1.0000 </r>
       <r>   -4.5845    1.0000 </r>
       <r>   -4.5322    1.0000 </r>
       <r>   -4.4956    1.0000 </r>
       <r>   -4.4768    1.0000 </r>
       <r>   -4.4345    1.0000 </r>
       <r>   -4.3420    1.0000 </r>
       <r>   -4.0793    1.0000 </r>
       <r>   -4.0621    1.0000 </r>
       <r>   -4.0581    1.0000 </r>
       <r>   -3.9882    1.0000 </r>
       <r>   -3.9292    1.0000 </r>
       <r>   -3.8985    1.0000 </r>
       <r>   -3.8519    1.0000 </r>
       <r>   -3.8084    1.0000 </r>
       <r>   -3.7935    1.0000 </r>
       <r>   -3.6754    1.0000 </r>
       <r>   -3.5638    1.0000 </r>
       <r>   -3.5166    1.0000 </r>
       <r>   -3.4317    1.0000 </r>
       <r>   -3.4145    1.0000 </r>
       <r>   -3.2329    1.0000 </r>
       <r>   -3.1139    1.0000 </r>
       <r>   -2.9222    1.0000 </r>
       <r>   -2.8675    1.0000 </r>
       <r>   -2.6630    1.0000 </r>
       <r>   -2.6099    1.0000 </r>
       <r>   -2.3926    1.0000 </r>
       <r>   -2.3679    1.0000 </r>
       <r>   -2.1965    1.0000 </r>
       <r>   -2.1120    1.0000 </r>
       <r>   -1.9592    1.0000 </r>
       <r>   -1.9039    1.0000 </r>
       <r>   -1.8722    1.0000 </r>
       <r>   -1.7878    1.0000 </r>
       <r>   -1.7405    1.0000 </r>
       <r>   -1.6997    1.0000 </r>
       <r>   -1.6164    1.0000 </r>
       <r>   -1.5618    1.0000 </r>
       <r>   -1.5273    1.0000 </r>
       <r>   -1.3889    1.0000 </r>
       <r>   -1.2447    1.0007 </r>
       <r>   -1.1740    1.0032 </r>
       <r>   -1.0964    1.0119 </r>
       <r>   -1.0634    1.0183 </r>
       <r>   -1.0076    1.0308 </r>
       <r>   -0.9464    1.0335 </r>
       <r>   -0.9137    1.0201 </r>
       <r>   -0.8652    0.9648 </r>
       <r>   -0.8047    0.8181 </r>
       <r>   -0.7817    0.7393 </r>
       <r>   -0.7262    0.5163 </r>
       <r>   -0.6881    0.3574 </r>
       <r>   -0.6405    0.1837 </r>
       <r>   -0.5838    0.0428 </r>
       <r>   -0.5078   -0.0311 </r>
       <r>   -0.4426   -0.0318 </r>
       <r>   -0.3797   -0.0180 </r>
       <r>   -0.3281   -0.0088 </r>
       <r>   -0.1036   -0.0001 </r>
       <r>    0.2545   -0.0000 </r>
       <r>    0.3316   -0.0000 </r>
       <r>    0.6059   -0.0000 </r>
       <r>    0.8872   -0.0000 </r>
       <r>    1.0799   -0.0000 </r>
       <r>    1.3459   -0.0000 </r>
       <r>    1.5892   -0.0000 </r>
       <r>    2.2133   -0.0000 </r>
       <r>    2.4753   -0.0000 </r>
       <r>    2.7987   -0.0000 </r>
       <r>    3.1079   -0.0000 </r>
      </set>
      <set comment="kpoint 6">
       <r>   -9.4203    1.0000 </r>
       <r>   -8.2187    1.0000 </r>
       <r>   -7.4331    1.0000 </r>
       <r>   -7.1548    1.0000 </r>
       <r>   -7.0378    1.0000 </r>
       <r>   -7.0069    1.0000 </r>
       <r>   -6.9841    1.0000 </r>
       <r>   -6.8077    1.0000 </r>
       <r>   -6.7699    1.0000 </r>
       <r>   -6.6797    1.0000 </r>
       <r>   -6.5883    1.0000 </r>
       <r>   -6.4517    1.0000 </r>
       <r>   -6.3807    1.0000 </r>
       <r>   -6.3537    1.0000 </r>
       <r>   -6.2855    1.0000 </r>
       <r>   -6.2032    1.0000 </r>
       <r>   -6.0378    1.0000 </r>
       <r>   -5.9684    1.0000 </r>
       <r>   -5.8327    1.0000 </r>
       <r>   -5.7748    1.0000 </r>
       <r>   -5.5084    1.0000 </r>
       <r>   -5.4252    1.0000 </r>
       <r>   -5.4071    1.0000 </r>
       <r>   -4.9777    1.0000 </r>
       <r>   -4.9052    1.0000 </r>
       <r>   -4.8231    1.0000 </r>
       <r>   -4.7504    1.0000 </r>
       <r>   -4.6637    1.0000 </r>
       <r>   -4.6135    1.0000 </r>
       <r>   -4.4356    1.0000 </r>
       <r>   -4.3686    1.0000 </r>
       <r>   -4.3233    1.0000 </r>
       <r>   -4.2168    1.0000 </r>
       <r>   -4.1654    1.0000 </r>
       <r>   -4.1128    1.0000 </r>
       <r>   -4.0472    1.0000 </r>
       <r>   -4.0017    1.0000 </r>
       <r>   -3.8648    1.0000 </r>
       <r>   -3.8482    1.0000 </r>
       <r>   -3.7684    1.0000 </r>
       <r>   -3.7488    1.0000 </r>
       <r>   -3.7200    1.0000 </r>
       <r>   -3.7011    1.0000 </r>
       <r>   -3.6548    1.0000 </r>
       <r>   -3.5954    1.0000 </r>
       <r>   -3.5069    1.0000 </r>
       <r>   -3.4232    1.0000 </r>
       <r>   -3.2437    1.0000 </r>
       <r>   -3.1326    1.0000 </r>
       <r>   -3.0263    1.0000 </r>
       <r>   -2.9260    1.0000 </r>
       <r>   -2.8203    1.0000 </r>
       <r>   -2.7100    1.0000 </r>
       <r>   -2.6699    1.0000 </r>
       <r>   -2.6115    1.0000 </r>
       <r>   -2.5257    1.0000 </r>
       <r>   -2.4788    1.0000 </r>
       <r>   -2.4029    1.0000 </r>
       <r>   -2.3453    1.0000 </r>
       <r>   -2.2945    1.0000 </r>
       <r>   -2.2447    1.0000 </r>
       <r>   -2.0949    1.0000 </r>
       <r>   -2.0352    1.0000 </r>
       <r>   -1.9512    1.0000 </r>
       <r>   -1.8633    1.0000 </r>
       <r>   -1.7789    1.0000 </r>
       <r>   -1.7141    1.0000 </r>
       <r>   -1.6223    1.0000 </r>
       <r>   -1.5012    1.0000 </r>
       <r>   -1.4483    1.0000 </r>
       <r>   -1.4161    1.0000 </r>
       <r>   -1.3171    1.0001 </r>
       <r>   -1.2483    1.0006 </r>
       <r>   -1.2075    1.0016 </r>
       <r>   -1.1867    1.0025 </r>
       <r>   -1.1147    1.0090 </r>
       <r>   -1.0164    1.0290 </r>
       <r>   -0.9343    1.0303 </r>
       <r>   -0.8446    0.9250 </r>
       <r>   -0.7842    0.7485 </r>
       <r>   -0.6903    0.3664 </r>
       <r>   -0.6554    0.2335 </r>
       <r>   -0.5693    0.0194 </r>
       <r>   -0.4840   -0.0353 </r>
       <r>   -0.4238   -0.0280 </r>
       <r>   -0.0228   -0.0000 </r>
       <r>    0.3421   -0.0000 </r>
       <r>    0.6115   -0.0000 </r>
       <r>    0.9998   -0.0000 </r>
       <r>    1.4926   -0.0000 </r>
       <r>    1.7701   -0.0000 </r>
       <r>    1.9793   -0.0000 </r>
       <r>    2.3259   -0.0000 </r>
       <r>    2.4827   -0.0000 </r>
       <r>    3.2081   -0.0000 </r>
       <r>    3.5955   -0.0000 </r>
      </set>
      <set comment="kpoint 7">
       <r>   -9.4203    1.0000 </r>
       <r>   -8.2190    1.0000 </r>
       <r>   -7.4329    1.0000 </r>
       <r>   -7.1554    1.0000 </r>
       <r>   -7.0371    1.0000 </r>
       <r>   -7.0063    1.0000 </r>
       <r>   -6.9866    1.0000 </r>
       <r>   -6.8053    1.0000 </r>
       <r>   -6.7695    1.0000 </r>
       <r>   -6.6751    1.0000 </r>
       <r>   -6.5949    1.0000 </r>
       <r>   -6.4538    1.0000 </r>
       <r>   -6.3929    1.0000 </r>
       <r>   -6.3403    1.0000 </r>
       <r>   -6.2656    1.0000 </r>
       <r>   -6.2052    1.0000 </r>
       <r>   -6.0421    1.0000 </r>
       <r>   -5.9921    1.0000 </r>
       <r>   -5.8319    1.0000 </r>
       <r>   -5.7629    1.0000 </r>
       <r>   -5.5038    1.0000 </r>
       <r>   -5.4352    1.0000 </r>
       <r>   -5.3979    1.0000 </r>
       <r>   -5.0043    1.0000 </r>
       <r>   -4.8683    1.0000 </r>
       <r>   -4.8395    1.0000 </r>
       <r>   -4.7578    1.0000 </r>
       <r>   -4.6519    1.0000 </r>
       <r>   -4.6115    1.0000 </r>
       <r>   -4.4433    1.0000 </r>
       <r>   -4.3825    1.0000 </r>
       <r>   -4.3089    1.0000 </r>
       <r>   -4.2017    1.0000 </r>
       <r>   -4.1607    1.0000 </r>
       <r>   -4.1154    1.0000 </r>
       <r>   -4.0499    1.0000 </r>
       <r>   -3.9910    1.0000 </r>
       <r>   -3.8737    1.0000 </r>
       <r>   -3.8425    1.0000 </r>
       <r>   -3.7840    1.0000 </r>
       <r>   -3.7462    1.0000 </r>
       <r>   -3.7054    1.0000 </r>
       <r>   -3.6871    1.0000 </r>
       <r>   -3.6585    1.0000 </r>
       <r>   -3.6160    1.0000 </r>
       <r>   -3.5030    1.0000 </r>
       <r>   -3.4092    1.0000 </r>
       <r>   -3.2766    1.0000 </r>
       <r>   -3.1342    1.0000 </r>
       <r>   -2.9947    1.0000 </r>
       <r>   -2.9167    1.0000 </r>
       <r>   -2.8152    1.0000 </r>
       <r>   -2.7362    1.0000 </r>
       <r>   -2.6807    1.0000 </r>
       <r>   -2.6069    1.0000 </r>
       <r>   -2.5455    1.0000 </r>
       <r>   -2.4742    1.0000 </r>
       <r>   -2.4016    1.0000 </r>
       <r>   -2.3601    1.0000 </r>
       <r>   -2.2733    1.0000 </r>
       <r>   -2.2551    1.0000 </r>
       <r>   -2.1316    1.0000 </r>
       <r>   -2.0541    1.0000 </r>
       <r>   -1.9144    1.0000 </r>
       <r>   -1.8665    1.0000 </r>
       <r>   -1.7913    1.0000 </r>
       <r>   -1.7434    1.0000 </r>
       <r>   -1.6073    1.0000 </r>
       <r>   -1.4920    1.0000 </r>
       <r>   -1.4530    1.0000 </r>
       <r>   -1.4101    1.0000 </r>
       <r>   -1.3386    1.0001 </r>
       <r>   -1.2292    1.0010 </r>
       <r>   -1.1855    1.0025 </r>
       <r>   -1.1633    1.0039 </r>
       <r>   -1.1036    1.0107 </r>
       <r>   -1.0196    1.0283 </r>
       <r>   -0.9296    1.0285 </r>
       <r>   -0.8373    0.9083 </r>
       <r>   -0.7801    0.7336 </r>
       <r>   -0.7125    0.4587 </r>
       <r>   -0.6497    0.2139 </r>
       <r>   -0.5584    0.0051 </r>
       <r>   -0.4808   -0.0354 </r>
       <r>   -0.4289   -0.0291 </r>
       <r>   -0.0315   -0.0000 </r>
       <r>    0.3458   -0.0000 </r>
       <r>    0.6140   -0.0000 </r>
       <r>    1.0015   -0.0000 </r>
       <r>    1.4960   -0.0000 </r>
       <r>    1.7687   -0.0000 </r>
       <r>    1.9916   -0.0000 </r>
       <r>    2.3187   -0.0000 </r>
       <r>    2.4648   -0.0000 </r>
       <r>    3.2079   -0.0000 </r>
       <r>    3.5937   -0.0000 </r>
      </set>
      <set comment="kpoint 8">
       <r>   -9.4204    1.0000 </r>
       <r>   -8.2200    1.0000 </r>
       <r>   -7.4314    1.0000 </r>
       <r>   -7.1610    1.0000 </r>
       <r>   -7.0258    1.0000 </r>
       <r>   -7.0063    1.0000 </r>
       <r>   -6.9910    1.0000 </r>
       <r>   -6.8079    1.0000 </r>
       <r>   -6.7621    1.0000 </r>
       <r>   -6.6862    1.0000 </r>
       <r>   -6.5802    1.0000 </r>
       <r>   -6.4569    1.0000 </r>
       <r>   -6.3911    1.0000 </r>
       <r>   -6.3550    1.0000 </r>
       <r>   -6.2501    1.0000 </r>
       <r>   -6.2053    1.0000 </r>
       <r>   -6.0714    1.0000 </r>
       <r>   -5.9523    1.0000 </r>
       <r>   -5.8721    1.0000 </r>
       <r>   -5.7408    1.0000 </r>
       <r>   -5.5098    1.0000 </r>
       <r>   -5.4394    1.0000 </r>
       <r>   -5.3778    1.0000 </r>
       <r>   -5.0029    1.0000 </r>
       <r>   -4.9257    1.0000 </r>
       <r>   -4.8065    1.0000 </r>
       <r>   -4.7290    1.0000 </r>
       <r>   -4.6730    1.0000 </r>
       <r>   -4.6164    1.0000 </r>
       <r>   -4.4280    1.0000 </r>
       <r>   -4.3890    1.0000 </r>
       <r>   -4.2891    1.0000 </r>
       <r>   -4.2111    1.0000 </r>
       <r>   -4.1532    1.0000 </r>
       <r>   -4.1231    1.0000 </r>
       <r>   -4.0363    1.0000 </r>
       <r>   -3.9662    1.0000 </r>
       <r>   -3.8903    1.0000 </r>
       <r>   -3.8253    1.0000 </r>
       <r>   -3.7809    1.0000 </r>
       <r>   -3.7586    1.0000 </r>
       <r>   -3.7320    1.0000 </r>
       <r>   -3.7026    1.0000 </r>
       <r>   -3.6691    1.0000 </r>
       <r>   -3.5713    1.0000 </r>
       <r>   -3.5061    1.0000 </r>
       <r>   -3.4182    1.0000 </r>
       <r>   -3.2868    1.0000 </r>
       <r>   -3.1380    1.0000 </r>
       <r>   -2.9516    1.0000 </r>
       <r>   -2.9345    1.0000 </r>
       <r>   -2.8179    1.0000 </r>
       <r>   -2.7536    1.0000 </r>
       <r>   -2.6749    1.0000 </r>
       <r>   -2.6225    1.0000 </r>
       <r>   -2.5333    1.0000 </r>
       <r>   -2.4859    1.0000 </r>
       <r>   -2.4080    1.0000 </r>
       <r>   -2.3666    1.0000 </r>
       <r>   -2.2686    1.0000 </r>
       <r>   -2.2549    1.0000 </r>
       <r>   -2.1350    1.0000 </r>
       <r>   -2.0650    1.0000 </r>
       <r>   -1.9607    1.0000 </r>
       <r>   -1.8983    1.0000 </r>
       <r>   -1.8062    1.0000 </r>
       <r>   -1.7040    1.0000 </r>
       <r>   -1.5960    1.0000 </r>
       <r>   -1.5139    1.0000 </r>
       <r>   -1.4432    1.0000 </r>
       <r>   -1.4156    1.0000 </r>
       <r>   -1.3853    1.0000 </r>
       <r>   -1.2236    1.0011 </r>
       <r>   -1.1991    1.0019 </r>
       <r>   -1.1549    1.0046 </r>
       <r>   -1.0432    1.0229 </r>
       <r>   -1.0137    1.0295 </r>
       <r>   -0.9192    1.0234 </r>
       <r>   -0.8137    0.8454 </r>
       <r>   -0.7713    0.7007 </r>
       <r>   -0.7212    0.4952 </r>
       <r>   -0.6350    0.1668 </r>
       <r>   -0.5373   -0.0155 </r>
       <r>   -0.4502   -0.0331 </r>
       <r>   -0.4181   -0.0267 </r>
       <r>   -0.0411   -0.0000 </r>
       <r>    0.3360   -0.0000 </r>
       <r>    0.6175   -0.0000 </r>
       <r>    0.9837   -0.0000 </r>
       <r>    1.4702   -0.0000 </r>
       <r>    1.7973   -0.0000 </r>
       <r>    1.9516   -0.0000 </r>
       <r>    2.3522   -0.0000 </r>
       <r>    2.4586   -0.0000 </r>
       <r>    3.1768   -0.0000 </r>
       <r>    3.5846   -0.0000 </r>
      </set>
      <set comment="kpoint 9">
       <r>   -8.7826    1.0000 </r>
       <r>   -7.7972    1.0000 </r>
       <r>   -7.6641    1.0000 </r>
       <r>   -7.0780    1.0000 </r>
       <r>   -6.7104    1.0000 </r>
       <r>   -6.6585    1.0000 </r>
       <r>   -6.5483    1.0000 </r>
       <r>   -6.4891    1.0000 </r>
       <r>   -6.4471    1.0000 </r>
       <r>   -6.4118    1.0000 </r>
       <r>   -6.3701    1.0000 </r>
       <r>   -6.1998    1.0000 </r>
       <r>   -6.0842    1.0000 </r>
       <r>   -6.0276    1.0000 </r>
       <r>   -5.9489    1.0000 </r>
       <r>   -5.9217    1.0000 </r>
       <r>   -5.8007    1.0000 </r>
       <r>   -5.6838    1.0000 </r>
       <r>   -5.5588    1.0000 </r>
       <r>   -5.4305    1.0000 </r>
       <r>   -5.3293    1.0000 </r>
       <r>   -5.2782    1.0000 </r>
       <r>   -5.2075    1.0000 </r>
       <r>   -5.1360    1.0000 </r>
       <r>   -5.0497    1.0000 </r>
       <r>   -4.9384    1.0000 </r>
       <r>   -4.8997    1.0000 </r>
       <r>   -4.8503    1.0000 </r>
       <r>   -4.6635    1.0000 </r>
       <r>   -4.5872    1.0000 </r>
       <r>   -4.5734    1.0000 </r>
       <r>   -4.5201    1.0000 </r>
       <r>   -4.4010    1.0000 </r>
       <r>   -4.3747    1.0000 </r>
       <r>   -4.2773    1.0000 </r>
       <r>   -4.1982    1.0000 </r>
       <r>   -4.1413    1.0000 </r>
       <r>   -4.0308    1.0000 </r>
       <r>   -3.9601    1.0000 </r>
       <r>   -3.9045    1.0000 </r>
       <r>   -3.8201    1.0000 </r>
       <r>   -3.7305    1.0000 </r>
       <r>   -3.6729    1.0000 </r>
       <r>   -3.6237    1.0000 </r>
       <r>   -3.5674    1.0000 </r>
       <r>   -3.5327    1.0000 </r>
       <r>   -3.5003    1.0000 </r>
       <r>   -3.4168    1.0000 </r>
       <r>   -3.3912    1.0000 </r>
       <r>   -3.2782    1.0000 </r>
       <r>   -3.2332    1.0000 </r>
       <r>   -3.2137    1.0000 </r>
       <r>   -3.1249    1.0000 </r>
       <r>   -3.0890    1.0000 </r>
       <r>   -2.9508    1.0000 </r>
       <r>   -2.9140    1.0000 </r>
       <r>   -2.8278    1.0000 </r>
       <r>   -2.7768    1.0000 </r>
       <r>   -2.6879    1.0000 </r>
       <r>   -2.6149    1.0000 </r>
       <r>   -2.4596    1.0000 </r>
       <r>   -2.3757    1.0000 </r>
       <r>   -2.3155    1.0000 </r>
       <r>   -2.2437    1.0000 </r>
       <r>   -2.1871    1.0000 </r>
       <r>   -2.1396    1.0000 </r>
       <r>   -2.0651    1.0000 </r>
       <r>   -1.9576    1.0000 </r>
       <r>   -1.9206    1.0000 </r>
       <r>   -1.8356    1.0000 </r>
       <r>   -1.8162    1.0000 </r>
       <r>   -1.7275    1.0000 </r>
       <r>   -1.5915    1.0000 </r>
       <r>   -1.4173    1.0000 </r>
       <r>   -1.3494    1.0000 </r>
       <r>   -1.3074    1.0001 </r>
       <r>   -1.2208    1.0012 </r>
       <r>   -1.1612    1.0041 </r>
       <r>   -0.8722    0.9760 </r>
       <r>   -0.8364    0.9063 </r>
       <r>   -0.7741    0.7110 </r>
       <r>   -0.6669    0.2753 </r>
       <r>   -0.6351    0.1669 </r>
       <r>   -0.4977   -0.0336 </r>
       <r>   -0.4284   -0.0290 </r>
       <r>   -0.2682   -0.0030 </r>
       <r>    0.6171   -0.0000 </r>
       <r>    0.7596   -0.0000 </r>
       <r>    1.1382   -0.0000 </r>
       <r>    1.6449   -0.0000 </r>
       <r>    1.8513   -0.0000 </r>
       <r>    2.1491   -0.0000 </r>
       <r>    2.4677   -0.0000 </r>
       <r>    2.6724   -0.0000 </r>
       <r>    3.4947   -0.0000 </r>
       <r>    3.8004   -0.0000 </r>
      </set>
      <set comment="kpoint 10">
       <r>   -8.7827    1.0000 </r>
       <r>   -7.7970    1.0000 </r>
       <r>   -7.6647    1.0000 </r>
       <r>   -7.0775    1.0000 </r>
       <r>   -6.7058    1.0000 </r>
       <r>   -6.6661    1.0000 </r>
       <r>   -6.5474    1.0000 </r>
       <r>   -6.4848    1.0000 </r>
       <r>   -6.4510    1.0000 </r>
       <r>   -6.4099    1.0000 </r>
       <r>   -6.3701    1.0000 </r>
       <r>   -6.1984    1.0000 </r>
       <r>   -6.0737    1.0000 </r>
       <r>   -6.0194    1.0000 </r>
       <r>   -5.9652    1.0000 </r>
       <r>   -5.9452    1.0000 </r>
       <r>   -5.7655    1.0000 </r>
       <r>   -5.6905    1.0000 </r>
       <r>   -5.5706    1.0000 </r>
       <r>   -5.4165    1.0000 </r>
       <r>   -5.3380    1.0000 </r>
       <r>   -5.2800    1.0000 </r>
       <r>   -5.1957    1.0000 </r>
       <r>   -5.1426    1.0000 </r>
       <r>   -5.0734    1.0000 </r>
       <r>   -4.9452    1.0000 </r>
       <r>   -4.8884    1.0000 </r>
       <r>   -4.8255    1.0000 </r>
       <r>   -4.6814    1.0000 </r>
       <r>   -4.5942    1.0000 </r>
       <r>   -4.5736    1.0000 </r>
       <r>   -4.5157    1.0000 </r>
       <r>   -4.4093    1.0000 </r>
       <r>   -4.3583    1.0000 </r>
       <r>   -4.2571    1.0000 </r>
       <r>   -4.2085    1.0000 </r>
       <r>   -4.1421    1.0000 </r>
       <r>   -4.0189    1.0000 </r>
       <r>   -3.9639    1.0000 </r>
       <r>   -3.8855    1.0000 </r>
       <r>   -3.8013    1.0000 </r>
       <r>   -3.7329    1.0000 </r>
       <r>   -3.6740    1.0000 </r>
       <r>   -3.6365    1.0000 </r>
       <r>   -3.5874    1.0000 </r>
       <r>   -3.5471    1.0000 </r>
       <r>   -3.4825    1.0000 </r>
       <r>   -3.4462    1.0000 </r>
       <r>   -3.3904    1.0000 </r>
       <r>   -3.3018    1.0000 </r>
       <r>   -3.2155    1.0000 </r>
       <r>   -3.1934    1.0000 </r>
       <r>   -3.1414    1.0000 </r>
       <r>   -3.0639    1.0000 </r>
       <r>   -2.9519    1.0000 </r>
       <r>   -2.9227    1.0000 </r>
       <r>   -2.8624    1.0000 </r>
       <r>   -2.7550    1.0000 </r>
       <r>   -2.6791    1.0000 </r>
       <r>   -2.6331    1.0000 </r>
       <r>   -2.4513    1.0000 </r>
       <r>   -2.3962    1.0000 </r>
       <r>   -2.3010    1.0000 </r>
       <r>   -2.2462    1.0000 </r>
       <r>   -2.2092    1.0000 </r>
       <r>   -2.1261    1.0000 </r>
       <r>   -2.0453    1.0000 </r>
       <r>   -2.0167    1.0000 </r>
       <r>   -1.8784    1.0000 </r>
       <r>   -1.8479    1.0000 </r>
       <r>   -1.7996    1.0000 </r>
       <r>   -1.7306    1.0000 </r>
       <r>   -1.5826    1.0000 </r>
       <r>   -1.4221    1.0000 </r>
       <r>   -1.3519    1.0000 </r>
       <r>   -1.2872    1.0002 </r>
       <r>   -1.2152    1.0014 </r>
       <r>   -1.1556    1.0045 </r>
       <r>   -0.8756    0.9809 </r>
       <r>   -0.8313    0.8938 </r>
       <r>   -0.7525    0.6260 </r>
       <r>   -0.7026    0.4169 </r>
       <r>   -0.6392    0.1796 </r>
       <r>   -0.4973   -0.0337 </r>
       <r>   -0.4247   -0.0282 </r>
       <r>   -0.2661   -0.0029 </r>
       <r>    0.6189   -0.0000 </r>
       <r>    0.7593   -0.0000 </r>
       <r>    1.1441   -0.0000 </r>
       <r>    1.6486   -0.0000 </r>
       <r>    1.8537   -0.0000 </r>
       <r>    2.1266   -0.0000 </r>
       <r>    2.4748   -0.0000 </r>
       <r>    2.6810   -0.0000 </r>
       <r>    3.4837   -0.0000 </r>
       <r>    3.8077   -0.0000 </r>
      </set>
      <set comment="kpoint 11">
       <r>   -8.7831    1.0000 </r>
       <r>   -7.8040    1.0000 </r>
       <r>   -7.6590    1.0000 </r>
       <r>   -7.0736    1.0000 </r>
       <r>   -6.7104    1.0000 </r>
       <r>   -6.6557    1.0000 </r>
       <r>   -6.5303    1.0000 </r>
       <r>   -6.4761    1.0000 </r>
       <r>   -6.4535    1.0000 </r>
       <r>   -6.4220    1.0000 </r>
       <r>   -6.3896    1.0000 </r>
       <r>   -6.1943    1.0000 </r>
       <r>   -6.0817    1.0000 </r>
       <r>   -6.0451    1.0000 </r>
       <r>   -5.9609    1.0000 </r>
       <r>   -5.9330    1.0000 </r>
       <r>   -5.7855    1.0000 </r>
       <r>   -5.6090    1.0000 </r>
       <r>   -5.5769    1.0000 </r>
       <r>   -5.4573    1.0000 </r>
       <r>   -5.2951    1.0000 </r>
       <r>   -5.2680    1.0000 </r>
       <r>   -5.2442    1.0000 </r>
       <r>   -5.1245    1.0000 </r>
       <r>   -5.0808    1.0000 </r>
       <r>   -4.9569    1.0000 </r>
       <r>   -4.9087    1.0000 </r>
       <r>   -4.8160    1.0000 </r>
       <r>   -4.6751    1.0000 </r>
       <r>   -4.6192    1.0000 </r>
       <r>   -4.5734    1.0000 </r>
       <r>   -4.4975    1.0000 </r>
       <r>   -4.3695    1.0000 </r>
       <r>   -4.3284    1.0000 </r>
       <r>   -4.2972    1.0000 </r>
       <r>   -4.2280    1.0000 </r>
       <r>   -4.0821    1.0000 </r>
       <r>   -4.0189    1.0000 </r>
       <r>   -3.9953    1.0000 </r>
       <r>   -3.8674    1.0000 </r>
       <r>   -3.8137    1.0000 </r>
       <r>   -3.7231    1.0000 </r>
       <r>   -3.6744    1.0000 </r>
       <r>   -3.6382    1.0000 </r>
       <r>   -3.5757    1.0000 </r>
       <r>   -3.5434    1.0000 </r>
       <r>   -3.4993    1.0000 </r>
       <r>   -3.4415    1.0000 </r>
       <r>   -3.3915    1.0000 </r>
       <r>   -3.3062    1.0000 </r>
       <r>   -3.2266    1.0000 </r>
       <r>   -3.2011    1.0000 </r>
       <r>   -3.1631    1.0000 </r>
       <r>   -3.0477    1.0000 </r>
       <r>   -2.9606    1.0000 </r>
       <r>   -2.9010    1.0000 </r>
       <r>   -2.8410    1.0000 </r>
       <r>   -2.8149    1.0000 </r>
       <r>   -2.7017    1.0000 </r>
       <r>   -2.6273    1.0000 </r>
       <r>   -2.4620    1.0000 </r>
       <r>   -2.3888    1.0000 </r>
       <r>   -2.3533    1.0000 </r>
       <r>   -2.2653    1.0000 </r>
       <r>   -2.2186    1.0000 </r>
       <r>   -2.1436    1.0000 </r>
       <r>   -2.0414    1.0000 </r>
       <r>   -1.9405    1.0000 </r>
       <r>   -1.9306    1.0000 </r>
       <r>   -1.8440    1.0000 </r>
       <r>   -1.8058    1.0000 </r>
       <r>   -1.7728    1.0000 </r>
       <r>   -1.6078    1.0000 </r>
       <r>   -1.4593    1.0000 </r>
       <r>   -1.3675    1.0000 </r>
       <r>   -1.2224    1.0012 </r>
       <r>   -1.1289    1.0072 </r>
       <r>   -1.0580    1.0195 </r>
       <r>   -0.9531    1.0346 </r>
       <r>   -0.7759    0.7180 </r>
       <r>   -0.7575    0.6462 </r>
       <r>   -0.7180    0.4815 </r>
       <r>   -0.6027    0.0809 </r>
       <r>   -0.4562   -0.0340 </r>
       <r>   -0.4290   -0.0291 </r>
       <r>   -0.2840   -0.0041 </r>
       <r>    0.5955   -0.0000 </r>
       <r>    0.7754   -0.0000 </r>
       <r>    1.1331   -0.0000 </r>
       <r>    1.6085   -0.0000 </r>
       <r>    1.8920   -0.0000 </r>
       <r>    2.0757   -0.0000 </r>
       <r>    2.5282   -0.0000 </r>
       <r>    2.6555   -0.0000 </r>
       <r>    3.4601   -0.0000 </r>
       <r>    3.8237   -0.0000 </r>
      </set>
      <set comment="kpoint 12">
       <r>   -8.4328    1.0000 </r>
       <r>   -8.0924    1.0000 </r>
       <r>   -7.4077    1.0000 </r>
       <r>   -7.2041    1.0000 </r>
       <r>   -6.5969    1.0000 </r>
       <r>   -6.5517    1.0000 </r>
       <r>   -6.4927    1.0000 </r>
       <r>   -6.3944    1.0000 </r>
       <r>   -6.3405    1.0000 </r>
       <r>   -6.2708    1.0000 </r>
       <r>   -6.2305    1.0000 </r>
       <r>   -6.1434    1.0000 </r>
       <r>   -6.0455    1.0000 </r>
       <r>   -5.9364    1.0000 </r>
       <r>   -5.9035    1.0000 </r>
       <r>   -5.7620    1.0000 </r>
       <r>   -5.6302    1.0000 </r>
       <r>   -5.5737    1.0000 </r>
       <r>   -5.5373    1.0000 </r>
       <r>   -5.4103    1.0000 </r>
       <r>   -5.3688    1.0000 </r>
       <r>   -5.2027    1.0000 </r>
       <r>   -5.1474    1.0000 </r>
       <r>   -5.1239    1.0000 </r>
       <r>   -5.0796    1.0000 </r>
       <r>   -4.9820    1.0000 </r>
       <r>   -4.9371    1.0000 </r>
       <r>   -4.8861    1.0000 </r>
       <r>   -4.7411    1.0000 </r>
       <r>   -4.6704    1.0000 </r>
       <r>   -4.6114    1.0000 </r>
       <r>   -4.5630    1.0000 </r>
       <r>   -4.4727    1.0000 </r>
       <r>   -4.4150    1.0000 </r>
       <r>   -4.3041    1.0000 </r>
       <r>   -4.2754    1.0000 </r>
       <r>   -4.1600    1.0000 </r>
       <r>   -4.0664    1.0000 </r>
       <r>   -4.0051    1.0000 </r>
       <r>   -3.9345    1.0000 </r>
       <r>   -3.8774    1.0000 </r>
       <r>   -3.7974    1.0000 </r>
       <r>   -3.7666    1.0000 </r>
       <r>   -3.7077    1.0000 </r>
       <r>   -3.5905    1.0000 </r>
[...]
       <r>   -4.3166    1.0000 </r>
       <r>   -4.1881    1.0000 </r>
       <r>   -4.0999    1.0000 </r>
       <r>   -4.0786    1.0000 </r>
       <r>   -4.0422    1.0000 </r>
       <r>   -3.9960    1.0000 </r>
       <r>   -3.9446    1.0000 </r>
       <r>   -3.8728    1.0000 </r>
       <r>   -3.7429    1.0000 </r>
       <r>   -3.6560    1.0000 </r>
       <r>   -3.6030    1.0000 </r>
       <r>   -3.5797    1.0000 </r>
       <r>   -3.5734    1.0000 </r>
       <r>   -3.5024    1.0000 </r>
       <r>   -3.4792    1.0000 </r>
       <r>   -3.3566    1.0000 </r>
       <r>   -3.2842    1.0000 </r>
       <r>   -3.2136    1.0000 </r>
       <r>   -3.0667    1.0000 </r>
       <r>   -2.8759    1.0000 </r>
       <r>   -2.8328    1.0000 </r>
       <r>   -2.8166    1.0000 </r>
       <r>   -2.8026    1.0000 </r>
       <r>   -2.6618    1.0000 </r>
       <r>   -2.6091    1.0000 </r>
       <r>   -2.5470    1.0000 </r>
       <r>   -2.4949    1.0000 </r>
       <r>   -2.4460    1.0000 </r>
       <r>   -2.3144    1.0000 </r>
       <r>   -2.2074    1.0000 </r>
       <r>   -2.1081    1.0000 </r>
       <r>   -2.0786    1.0000 </r>
       <r>   -2.0374    1.0000 </r>
       <r>   -1.9543    1.0000 </r>
       <r>   -1.8783    1.0000 </r>
       <r>   -1.8526    1.0000 </r>
       <r>   -1.8393    1.0000 </r>
       <r>   -1.6634    1.0000 </r>
       <r>   -1.5467    1.0000 </r>
       <r>   -1.3929    1.0000 </r>
       <r>   -1.3563    1.0000 </r>
       <r>   -1.1753    1.0031 </r>
       <r>   -1.0881    1.0133 </r>
       <r>   -0.9222    1.0251 </r>
       <r>   -0.8536    0.9437 </r>
       <r>   -0.8044    0.8169 </r>
       <r>   -0.7535    0.6302 </r>
       <r>   -0.6047    0.0854 </r>
       <r>   -0.5545    0.0006 </r>
       <r>   -0.5050   -0.0319 </r>
       <r>   -0.3319   -0.0093 </r>
       <r>    0.2713   -0.0000 </r>
       <r>    0.4941   -0.0000 </r>
       <r>    0.8920   -0.0000 </r>
       <r>    1.5209   -0.0000 </r>
       <r>    1.5894   -0.0000 </r>
       <r>    2.4227   -0.0000 </r>
       <r>    2.7426   -0.0000 </r>
       <r>    3.2507   -0.0000 </r>
       <r>    3.5810   -0.0000 </r>
       <r>    4.0362   -0.0000 </r>
      </set>
     </set>
    </set>
   </array>
  </eigenvalues>
  <separator name="orbital magnetization" >
   <v name="MAGDIPOLOUT">      0.00000000      0.00000000      0.00000000</v>
  </separator>
  <dos>
   <i name="efermi">     -0.72232302 </i>
   <total>
    <array>
     <dimension dim="1">gridpoints</dimension>
     <dimension dim="2">spin</dimension>
     <field>energy</field>
     <field>total</field>
     <field>integrated</field>
     <set>
      <set comment="spin 1">
       <r>   -12.0765     0.0000     0.0000 </r>
       <r>   -12.0147     0.0000     0.0000 </r>
       <r>   -11.9529     0.0000     0.0000 </r>
       <r>   -11.8911     0.0000     0.0000 </r>
       <r>   -11.8293     0.0000     0.0000 </r>
       <r>   -11.7676     0.0000     0.0000 </r>
       <r>   -11.7058    -0.0000    -0.0000 </r>
       <r>   -11.6440    -0.0000    -0.0000 </r>
       <r>   -11.5822    -0.0000    -0.0000 </r>
       <r>   -11.5204    -0.0000    -0.0000 </r>
       <r>   -11.4586    -0.0000    -0.0000 </r>
       <r>   -11.3969    -0.0000    -0.0000 </r>
       <r>   -11.3351    -0.0000    -0.0000 </r>
       <r>   -11.2733    -0.0000    -0.0000 </r>
       <r>   -11.2115    -0.0000    -0.0000 </r>
       <r>   -11.1497    -0.0000    -0.0000 </r>
       <r>   -11.0879    -0.0000    -0.0000 </r>
       <r>   -11.0261    -0.0000    -0.0000 </r>
       <r>   -10.9644    -0.0000    -0.0000 </r>
       <r>   -10.9026    -0.0000    -0.0000 </r>
       <r>   -10.8408    -0.0000    -0.0000 </r>
       <r>   -10.7790    -0.0000    -0.0000 </r>
       <r>   -10.7172    -0.0000    -0.0000 </r>
       <r>   -10.6554    -0.0002    -0.0000 </r>
       <r>   -10.5936    -0.0007    -0.0001 </r>
       <r>   -10.5319    -0.0028    -0.0002 </r>
       <r>   -10.4701    -0.0081    -0.0007 </r>
       <r>   -10.4083    -0.0180    -0.0018 </r>
       <r>   -10.3465    -0.0278    -0.0036 </r>
       <r>   -10.2847    -0.0197    -0.0048 </r>
       <r>   -10.2229     0.0353    -0.0026 </r>
       <r>   -10.1611     0.1586     0.0072 </r>
       <r>   -10.0994     0.3394     0.0282 </r>
       <r>   -10.0376     0.5385     0.0614 </r>
       <r>    -9.9758     0.7168     0.1057 </r>
       <r>    -9.9140     0.8524     0.1584 </r>
       <r>    -9.8522     0.9281     0.2157 </r>
       <r>    -9.7904     0.9284     0.2731 </r>
       <r>    -9.7286     0.8615     0.3263 </r>
       <r>    -9.6669     0.7770     0.3743 </r>
       <r>    -9.6051     0.7503     0.4207 </r>
       <r>    -9.5433     0.8296     0.4720 </r>
       <r>    -9.4815     0.9783     0.5324 </r>
       <r>    -9.4197     1.0864     0.5995 </r>
       <r>    -9.3579     1.0727     0.6658 </r>
       <r>    -9.2961     0.9614     0.7252 </r>
       <r>    -9.2344     0.8370     0.7769 </r>
       <r>    -9.1726     0.7537     0.8235 </r>
       <r>    -9.1108     0.7278     0.8684 </r>
       <r>    -9.0490     0.7947     0.9175 </r>
       <r>    -8.9872     1.0035     0.9795 </r>
       <r>    -8.9254     1.3310     1.0618 </r>
       <r>    -8.8636     1.6520     1.1639 </r>
       <r>    -8.8019     1.8472     1.2780 </r>
       <r>    -8.7401     1.9139     1.3962 </r>
       <r>    -8.6783     1.9240     1.5151 </r>
       <r>    -8.6165     1.9030     1.6327 </r>
       <r>    -8.5547     1.8221     1.7453 </r>
       <r>    -8.4929     1.7079     1.8508 </r>
       <r>    -8.4311     1.6910     1.9553 </r>
       <r>    -8.3694     1.9003     2.0727 </r>
       <r>    -8.3076     2.3032     2.2150 </r>
       <r>    -8.2458     2.6745     2.3802 </r>
       <r>    -8.1840     2.7765     2.5518 </r>
       <r>    -8.1222     2.5844     2.7115 </r>
       <r>    -8.0604     2.2960     2.8533 </r>
       <r>    -7.9986     2.1217     2.9844 </r>
       <r>    -7.9369     2.1266     3.1158 </r>
       <r>    -7.8751     2.2888     3.2572 </r>
       <r>    -7.8133     2.6349     3.4200 </r>
       <r>    -7.7515     3.2418     3.6203 </r>
       <r>    -7.6897     4.0913     3.8731 </r>
       <r>    -7.6279     4.9720     4.1803 </r>
       <r>    -7.5662     5.6300     4.5281 </r>
       <r>    -7.5044     6.0723     4.9033 </r>
       <r>    -7.4426     6.6299     5.3130 </r>
       <r>    -7.3808     7.6257     5.7841 </r>
       <r>    -7.3190     9.0543     6.3435 </r>
       <r>    -7.2572    10.6475     7.0014 </r>
       <r>    -7.1954    12.1276     7.7507 </r>
       <r>    -7.1337    13.2830     8.5714 </r>
       <r>    -7.0719    13.9039     9.4305 </r>
       <r>    -7.0101    13.8428    10.2857 </r>
       <r>    -6.9483    13.2333    11.1034 </r>
       <r>    -6.8865    12.6120    11.8826 </r>
       <r>    -6.8247    12.7133    12.6681 </r>
       <r>    -6.7629    14.0194    13.5343 </r>
       <r>    -6.7012    16.4074    14.5480 </r>
       <r>    -6.6394    19.2080    15.7348 </r>
       <r>    -6.5776    21.6627    17.0733 </r>
       <r>    -6.5158    23.3714    18.5173 </r>
       <r>    -6.4540    24.3244    20.0202 </r>
       <r>    -6.3922    24.6289    21.5419 </r>
       <r>    -6.3304    24.3857    23.0486 </r>
       <r>    -6.2687    23.7964    24.5188 </r>
       <r>    -6.2069    23.1543    25.9494 </r>
       <r>    -6.1451    22.6214    27.3471 </r>
       <r>    -6.0833    22.1021    28.7127 </r>
       <r>    -6.0215    21.3855    30.0340 </r>
       <r>    -5.9597    20.3723    31.2927 </r>
       <r>    -5.8979    19.1767    32.4776 </r>
       <r>    -5.8362    18.0764    33.5944 </r>
       <r>    -5.7744    17.3856    34.6686 </r>
       <r>    -5.7126    17.3286    35.7393 </r>
       <r>    -5.6508    17.9385    36.8476 </r>
       <r>    -5.5890    18.9987    38.0215 </r>
       <r>    -5.5272    20.0947    39.2630 </r>
       <r>    -5.4654    20.7929    40.5477 </r>
       <r>    -5.4037    20.8340    41.8350 </r>
       <r>    -5.3419    20.2434    43.0857 </r>
       <r>    -5.2801    19.3497    44.2812 </r>
       <r>    -5.2183    18.6457    45.4333 </r>
       <r>    -5.1565    18.4683    46.5743 </r>
       <r>    -5.0947    18.7832    47.7349 </r>
       <r>    -5.0329    19.3660    48.9314 </r>
       <r>    -4.9712    20.1160    50.1743 </r>
       <r>    -4.9094    21.0226    51.4732 </r>
       <r>    -4.8476    21.9062    52.8267 </r>
       <r>    -4.7858    22.4809    54.2156 </r>
       <r>    -4.7240    22.7700    55.6225 </r>
       <r>    -4.6622    23.2562    57.0594 </r>
       <r>    -4.6004    24.4256    58.5685 </r>
       <r>    -4.5387    26.1810    60.1862 </r>
       <r>    -4.4769    27.8014    61.9039 </r>
       <r>    -4.4151    28.5056    63.6651 </r>
       <r>    -4.3533    28.0952    65.4010 </r>
       <r>    -4.2915    27.1776    67.0802 </r>
       <r>    -4.2297    26.8019    68.7361 </r>
       <r>    -4.1680    27.6903    70.4470 </r>
       <r>    -4.1062    29.6162    72.2768 </r>
       <r>    -4.0444    31.5637    74.2270 </r>
       <r>    -3.9826    32.6381    76.2436 </r>
       <r>    -3.9208    32.8110    78.2708 </r>
       <r>    -3.8590    32.7219    80.2926 </r>
       <r>    -3.7972    32.9012    82.3254 </r>
       <r>    -3.7355    33.3601    84.3865 </r>
       <r>    -3.6737    33.7872    86.4741 </r>
       <r>    -3.6119    33.8272    88.5641 </r>
       <r>    -3.5501    33.1489    90.6123 </r>
       <r>    -3.4883    31.5304    92.5604 </r>
       <r>    -3.4265    29.0691    94.3564 </r>
       <r>    -3.3647    26.2206    95.9765 </r>
       <r>    -3.3030    23.4985    97.4283 </r>
       <r>    -3.2412    21.1767    98.7368 </r>
       <r>    -3.1794    19.3768    99.9340 </r>
       <r>    -3.1176    18.3697   101.0689 </r>
       <r>    -3.0558    18.6065   102.2186 </r>
       <r>    -2.9940    20.3345   103.4749 </r>
       <r>    -2.9322    23.1513   104.9053 </r>
       <r>    -2.8705    25.9923   106.5113 </r>
       <r>    -2.8087    27.6963   108.2225 </r>
       <r>    -2.7469    27.7011   109.9340 </r>
       <r>    -2.6851    26.2750   111.5575 </r>
       <r>    -2.6233    24.2267   113.0543 </r>
       <r>    -2.5615    22.4699   114.4426 </r>
       <r>    -2.4997    21.6765   115.7819 </r>
       <r>    -2.4380    22.0458   117.1440 </r>
       <r>    -2.3762    23.2479   118.5804 </r>
       <r>    -2.3144    24.5855   120.0994 </r>
       <r>    -2.2526    25.3391   121.6650 </r>
       <r>    -2.1908    25.1874   123.2212 </r>
       <r>    -2.1290    24.4571   124.7323 </r>
       <r>    -2.0672    23.9314   126.2109 </r>
       <r>    -2.0055    24.2801   127.7111 </r>
       <r>    -1.9437    25.5438   129.2893 </r>
       <r>    -1.8819    27.0507   130.9607 </r>
       <r>    -1.8201    27.8080   132.6788 </r>
       <r>    -1.7583    27.1445   134.3559 </r>
       <r>    -1.6965    25.2031   135.9131 </r>
       <r>    -1.6347    22.8682   137.3261 </r>
       <r>    -1.5730    21.1156   138.6307 </r>
       <r>    -1.5112    20.3846   139.8902 </r>
       <r>    -1.4494    20.5596   141.1604 </r>
       <r>    -1.3876    21.3850   142.4817 </r>
       <r>    -1.3258    22.6690   143.8823 </r>
       <r>    -1.2640    24.1199   145.3726 </r>
       <r>    -1.2022    25.3043   146.9360 </r>
       <r>    -1.1405    25.9999   148.5425 </r>
       <r>    -1.0787    26.5071   150.1802 </r>
       <r>    -1.0169    27.3965   151.8729 </r>
       <r>    -0.9551    28.9089   153.6591 </r>
       <r>    -0.8933    30.6839   155.5549 </r>
       <r>    -0.8315    32.0078   157.5325 </r>
       <r>    -0.7697    32.1992   159.5219 </r>
       <r>    -0.7080    30.9206   161.4324 </r>
       <r>    -0.6462    28.4275   163.1888 </r>
       <r>    -0.5844    25.4904   164.7637 </r>
       <r>    -0.5226    22.7617   166.1701 </r>
       <r>    -0.4608    20.1774   167.4167 </r>
       <r>    -0.3990    17.2506   168.4826 </r>
       <r>    -0.3373    13.9718   169.3458 </r>
       <r>    -0.2755    11.0803   170.0304 </r>
       <r>    -0.2137     9.3235   170.6065 </r>
       <r>    -0.1519     8.6773   171.1426 </r>
       <r>    -0.0901     8.4137   171.6625 </r>
       <r>    -0.0283     7.7970   172.1442 </r>
       <r>     0.0335     6.6516   172.5552 </r>
       <r>     0.0952     5.3636   172.8866 </r>
       <r>     0.1570     4.4456   173.1613 </r>
       <r>     0.2188     4.1116   173.4153 </r>
       <r>     0.2806     4.2007   173.6748 </r>
       <r>     0.3424     4.4201   173.9479 </r>
       <r>     0.4042     4.6396   174.2346 </r>
       <r>     0.4660     4.9767   174.5421 </r>
       <r>     0.5277     5.5790   174.8868 </r>
       <r>     0.5895     6.3014   175.2761 </r>
       <r>     0.6513     6.6966   175.6899 </r>
       <r>     0.7131     6.4369   176.0876 </r>
       <r>     0.7749     5.6904   176.4392 </r>
       <r>     0.8367     4.9693   176.7462 </r>
       <r>     0.8985     4.6619   177.0342 </r>
       <r>     0.9602     4.8044   177.3311 </r>
       <r>     1.0220     5.2003   177.6524 </r>
       <r>     1.0838     5.5769   177.9970 </r>
       <r>     1.1456     5.6487   178.3460 </r>
       <r>     1.2074     5.2310   178.6692 </r>
       <r>     1.2692     4.4037   178.9412 </r>
       <r>     1.3310     3.5340   179.1596 </r>
       <r>     1.3927     3.0874   179.3504 </r>
       <r>     1.4545     3.3607   179.5580 </r>
       <r>     1.5163     4.2755   179.8222 </r>
       <r>     1.5781     5.3666   180.1537 </r>
       <r>     1.6399     6.0945   180.5303 </r>
       <r>     1.7017     6.2886   180.9188 </r>
       <r>     1.7635     6.2212   181.3032 </r>
       <r>     1.8252     6.1720   181.6846 </r>
       <r>     1.8870     6.0493   182.0583 </r>
       <r>     1.9488     5.5791   182.4030 </r>
       <r>     2.0106     4.7698   182.6977 </r>
       <r>     2.0724     3.9988   182.9448 </r>
       <r>     2.1342     3.6374   183.1695 </r>
       <r>     2.1960     3.7290   183.3999 </r>
       <r>     2.2577     4.0795   183.6520 </r>
       <r>     2.3195     4.5594   183.9337 </r>
       <r>     2.3813     5.2072   184.2554 </r>
       <r>     2.4431     6.0321   184.6281 </r>
       <r>     2.5049     6.7953   185.0480 </r>
       <r>     2.5667     7.0811   185.4855 </r>
       <r>     2.6285     6.6419   185.8959 </r>
       <r>     2.6902     5.6733   186.2464 </r>
       <r>     2.7520     4.6938   186.5364 </r>
       <r>     2.8138     4.1199   186.7909 </r>
       <r>     2.8756     3.9816   187.0369 </r>
       <r>     2.9374     4.0446   187.2868 </r>
       <r>     2.9992     4.1249   187.5417 </r>
       <r>     3.0610     4.2314   187.8031 </r>
       <r>     3.1227     4.4372   188.0773 </r>
       <r>     3.1845     4.6730   188.3660 </r>
       <r>     3.2463     4.6983   188.6563 </r>
       <r>     3.3081     4.3251   188.9235 </r>
       <r>     3.3699     3.6664   189.1501 </r>
       <r>     3.4317     3.0913   189.3411 </r>
       <r>     3.4934     2.8933   189.5198 </r>
       <r>     3.5552     3.0402   189.7077 </r>
       <r>     3.6170     3.2774   189.9102 </r>
       <r>     3.6788     3.4210   190.1215 </r>
       <r>     3.7406     3.4809   190.3366 </r>
       <r>     3.8024     3.5193   190.5540 </r>
       <r>     3.8642     3.4941   190.7699 </r>
       <r>     3.9259     3.3125   190.9746 </r>
       <r>     3.9877     2.9935   191.1595 </r>
       <r>     4.0495     2.6768   191.3249 </r>
       <r>     4.1113     2.4647   191.4772 </r>
       <r>     4.1731     2.3138   191.6202 </r>
       <r>     4.2349     2.0882   191.7492 </r>
       <r>     4.2967     1.6965   191.8540 </r>
       <r>     4.3584     1.1845   191.9272 </r>
       <r>     4.4202     0.6974   191.9703 </r>
       <r>     4.4820     0.3499   191.9919 </r>
       <r>     4.5438     0.1510   192.0012 </r>
       <r>     4.6056     0.0480   192.0042 </r>
       <r>     4.6674    -0.0032   192.0040 </r>
       <r>     4.7292    -0.0222   192.0026 </r>
       <r>     4.7909    -0.0212   192.0013 </r>
       <r>     4.8527    -0.0129   192.0005 </r>
       <r>     4.9145    -0.0058   192.0002 </r>
       <r>     4.9763    -0.0020   192.0000 </r>
       <r>     5.0381    -0.0005   192.0000 </r>
       <r>     5.0999    -0.0001   192.0000 </r>
       <r>     5.1617    -0.0000   192.0000 </r>
       <r>     5.2234    -0.0000   192.0000 </r>
       <r>     5.2852    -0.0000   192.0000 </r>
       <r>     5.3470    -0.0000   192.0000 </r>
       <r>     5.4088    -0.0000   192.0000 </r>
       <r>     5.4706    -0.0000   192.0000 </r>
       <r>     5.5324    -0.0000   192.0000 </r>
       <r>     5.5942    -0.0000   192.0000 </r>
       <r>     5.6559    -0.0000   192.0000 </r>
       <r>     5.7177    -0.0000   192.0000 </r>
       <r>     5.7795     0.0000   192.0000 </r>
       <r>     5.8413     0.0000   192.0000 </r>
       <r>     5.9031     0.0000   192.0000 </r>
       <r>     5.9649     0.0000   192.0000 </r>
       <r>     6.0267     0.0000   192.0000 </r>
       <r>     6.0884     0.0000   192.0000 </r>
       <r>     6.1502     0.0000   192.0000 </r>
       <r>     6.2120     0.0000   192.0000 </r>
       <r>     6.2738     0.0000   192.0000 </r>
       <r>     6.3356     0.0000   192.0000 </r>
       <r>     6.3974     0.0000   192.0000 </r>
       <r>     6.4592     0.0000   192.0000 </r>
      </set>
     </set>
    </array>
   </total>
  </dos>
 </calculation>
 <structure name="finalpos" >
  <crystal>
   <varray name="basis" >
    <v>       5.55785930       0.00000000       0.00000000 </v>
    <v>       2.77892965       4.81324734       0.00000000 </v>
    <v>       0.00000000       0.00000000      30.80695967 </v>
   </varray>
   <i name="volume">    824.12780743 </i>
   <varray name="rec_basis" >
    <v>       0.17992539      -0.10387997       0.00000000 </v>
    <v>       0.00000000       0.20775994       0.00000000 </v>
    <v>       0.00000000       0.00000000       0.03246020 </v>
   </varray>
  </crystal>
  <varray name="positions" >
   <v>       0.00000000       0.00000000       0.38952237 </v>
   <v>       0.50000000       0.00000000       0.38952237 </v>
   <v>       0.00000000       0.50000000       0.38952237 </v>
   <v>       0.50000000       0.50000000       0.38952237 </v>
   <v>       0.16652883       0.16652883       0.46542487 </v>
   <v>       0.66694234       0.16652883       0.46542487 </v>
   <v>       0.16652883       0.66694234       0.46542487 </v>
   <v>       0.66666667       0.66666667       0.46426737 </v>
   <v>       0.83396869       0.33206261       0.54005199 </v>
   <v>       0.33333333       0.33333333       0.53994492 </v>
   <v>       0.83396869       0.83396869       0.54005199 </v>
   <v>       0.33206261       0.83396869       0.54005199 </v>
   <v>       0.00000000       0.00000000       0.61904352 </v>
   <v>       0.99902544       0.50048728       0.61498914 </v>
   <v>       0.50048728       0.50048728       0.61498914 </v>
   <v>       0.50048728       0.99902544       0.61498914 </v>
   <v>       0.00000000       0.00000000       0.66953436 </v>
  </varray>
  <varray name="selective"  type="logical" >
   <v type="logical" >  F  F  F </v>
   <v type="logical" >  F  F  F </v>
   <v type="logical" >  F  F  F </v>
   <v type="logical" >  F  F  F </v>
   <v type="logical" >  T  T  T </v>
   <v type="logical" >  T  T  T </v>
   <v type="logical" >  T  T  T </v>
   <v type="logical" >  T  T  T </v>
   <v type="logical" >  T  T  T </v>
   <v type="logical" >  T  T  T </v>
   <v type="logical" >  T  T  T </v>
   <v type="logical" >  T  T  T </v>
   <v type="logical" >  T  T  T </v>
   <v type="logical" >  T  T  T </v>
   <v type="logical" >  T  T  T </v>
   <v type="logical" >  T  T  T </v>
   <v type="logical" >  T  T  T </v>
  </varray>
  <nose>
   <v>      -3.00000000       0.00000000       0.00010000       0.00010000 </v>
  </nose>
 </structure>
</modeling>
