   16   16    1    1
  0.5150799E+02  0.5557859E-09  0.5557859E-09  0.3080696E-08  0.5000000E-15
  1.000000000000000E-004
  CAR 
 unknown system                          
    160     52     96
 
  0.6250000E-01  0.6250000E-01  0.0000000E+00  0.2083333E-01
    1      -10.185086   1.000000
    2       -8.912031   1.000000
    3       -7.857597   1.000000
    4       -7.715702   1.000000
    5       -7.448668   1.000000
    6       -7.424306   1.000000
    7       -7.412181   1.000000
    8       -7.306069   1.000000
    9       -7.283202   1.000000
   10       -7.256969   1.000000
   11       -6.821893   1.000000
   12       -6.808576   1.000000
   13       -6.799585   1.000000
   14       -6.789339   1.000000
   15       -6.780282   1.000000
   16       -6.594160   1.000000
   17       -6.551654   1.000000
   18       -6.542717   1.000000
   19       -6.489867   1.000000
   20       -5.796809   1.000000
   21       -5.775136   1.000000
   22       -5.674486   1.000000
   23       -4.943312   1.000000
   24       -4.920887   1.000000
   25       -4.807287   1.000000
   26       -4.661275   1.000000
   27       -4.640103   1.000000
   28       -4.633680   1.000000
   29       -4.568303   1.000000
   30       -4.507372   1.000000
   31       -4.322942   1.000000
   32       -4.281758   1.000000
   33       -4.166207   1.000000
   34       -4.149839   1.000000
   35       -4.049180   1.000000
   36       -4.007685   1.000000
   37       -3.988109   1.000000
   38       -3.932806   1.000000
   39       -3.895735   1.000000
   40       -3.856311   1.000000
   41       -3.768585   1.000000
   42       -3.752199   1.000000
   43       -3.506389   1.000000
   44       -3.467054   1.000000
   45       -3.409950   1.000000
   46       -3.182098   1.000000
   47       -3.087530   1.000000
   48       -2.941109   1.000000
   49       -2.903236   1.000000
   50       -2.814802   1.000000
   51       -2.717066   1.000000
   52       -2.330007   1.000000
   53       -2.315228   1.000000
   54       -2.105732   1.000000
   55       -2.079405   1.000000
   56       -1.858374   1.000000
   57       -1.809018   1.000000
   58       -1.732120   1.000000
   59       -1.680430   1.000000
   60       -1.595855   1.000000
   61       -1.574311   1.000000
   62       -1.544583   1.000001
   63       -1.323429   1.000599
   64       -1.166296   1.012353
   65       -1.134209   1.018716
   66       -1.069879   1.032663
   67       -1.023709   1.034329
   68       -1.008843   1.030905
   69       -0.936097   0.961807
   70       -0.897645   0.877328
   71       -0.823154   0.617911
   72       -0.807274   0.551910
   73       -0.780175   0.437540
   74       -0.715872   0.192532
   75       -0.692422   0.122958
   76       -0.626014  -0.000645
   77       -0.575872  -0.032412
   78       -0.536946  -0.034855
   79       -0.373558  -0.005570
   80       -0.364449  -0.004734
   81       -0.294216  -0.001138
   82       -0.218971  -0.000180
   83       -0.183076  -0.000067
   84       -0.158234  -0.000032
   85       -0.073375  -0.000002
   86        0.039335  -0.000000
   87        0.307299  -0.000000
   88        0.387042  -0.000000
   89        1.243114  -0.000000
   90        1.495366  -0.000000
   91        1.652160  -0.000000
   92        1.671710  -0.000000
   93        1.743821  -0.000000
   94        1.819366  -0.000000
   95        2.614476  -0.000000
   96        2.649068  -0.000000
 
 -0.6250000E-01  0.1040834E-16  0.0000000E+00  0.1041667E-01
    1      -10.185087   1.000000
    2       -8.912038   1.000000
    3       -7.857638   1.000000
    4       -7.715728   1.000000
    5       -7.449090   1.000000
    6       -7.420576   1.000000
    7       -7.415469   1.000000
    8       -7.308383   1.000000
    9       -7.276138   1.000000
   10       -7.261746   1.000000
   11       -6.822638   1.000000
   12       -6.810944   1.000000
   13       -6.796898   1.000000
   14       -6.790959   1.000000
   15       -6.777664   1.000000
   16       -6.595292   1.000000
   17       -6.555135   1.000000
   18       -6.537271   1.000000
   19       -6.491234   1.000000
   20       -5.795307   1.000000
   21       -5.776220   1.000000
   22       -5.674997   1.000000
   23       -4.936832   1.000000
   24       -4.926978   1.000000
   25       -4.807142   1.000000
   26       -4.658873   1.000000
   27       -4.646449   1.000000
   28       -4.631927   1.000000
   29       -4.565740   1.000000
   30       -4.507237   1.000000
   31       -4.326347   1.000000
   32       -4.279009   1.000000
   33       -4.161520   1.000000
   34       -4.153980   1.000000
   35       -4.032152   1.000000
   36       -4.028554   1.000000
   37       -3.980818   1.000000
   38       -3.938105   1.000000
   39       -3.890406   1.000000
   40       -3.862580   1.000000
   41       -3.771406   1.000000
   42       -3.748659   1.000000
   43       -3.507382   1.000000
   44       -3.466208   1.000000
   45       -3.410751   1.000000
   46       -3.142456   1.000000
   47       -3.135885   1.000000
   48       -2.928860   1.000000
   49       -2.915697   1.000000
   50       -2.775816   1.000000
   51       -2.745145   1.000000
   52       -2.330934   1.000000
   53       -2.312152   1.000000
   54       -2.106223   1.000000
   55       -2.075020   1.000000
   56       -1.839580   1.000000
   57       -1.833436   1.000000
   58       -1.738670   1.000000
   59       -1.682347   1.000000
   60       -1.587946   1.000000
   61       -1.584039   1.000000
   62       -1.531546   1.000001
   63       -1.337110   1.000429
   64       -1.145318   1.016355
   65       -1.120628   1.021765
   66       -1.115069   1.023045
   67       -1.032864   1.035256
   68       -1.012201   1.031910
   69       -0.909957   0.908424
   70       -0.863497   0.771917
   71       -0.840072   0.685527
   72       -0.812858   0.575312
   73       -0.757668   0.345123
   74       -0.724325   0.220711
   75       -0.690118   0.116843
   76       -0.625054  -0.001678
   77       -0.603287  -0.020263
   78       -0.531133  -0.034252
   79       -0.380415  -0.006274
   80       -0.353173  -0.003843
   81       -0.292740  -0.001101
   82       -0.208680  -0.000136
   83       -0.196575  -0.000098
   84       -0.162035  -0.000036
   85       -0.077610  -0.000002
   86        0.042005  -0.000000
   87        0.332168  -0.000000
   88        0.363451  -0.000000
   89        1.240364  -0.000000
   90        1.498125  -0.000000
   91        1.640395  -0.000000
   92        1.684652  -0.000000
   93        1.777397  -0.000000
   94        1.787645  -0.000000
   95        2.622913  -0.000000
   96        2.636233  -0.000000
 
  0.1875000E+00  0.6250000E-01  0.0000000E+00  0.2083333E-01
    1       -9.980594   1.000000
    2       -8.710521   1.000000
    3       -7.654084   1.000000
    4       -7.520163   1.000000
    5       -7.428135   1.000000
    6       -7.349536   1.000000
    7       -7.232424   1.000000
    8       -7.215513   1.000000
    9       -7.159387   1.000000
   10       -7.095021   1.000000
   11       -6.739366   1.000000
   12       -6.716598   1.000000
   13       -6.698831   1.000000
   14       -6.694257   1.000000
   15       -6.632664   1.000000
   16       -6.489261   1.000000
   17       -6.433578   1.000000
   18       -6.377619   1.000000
   19       -6.315749   1.000000
   20       -5.731776   1.000000
   21       -5.718545   1.000000
   22       -5.622984   1.000000
   23       -4.967354   1.000000
   24       -4.920069   1.000000
   25       -4.844452   1.000000
   26       -4.711681   1.000000
   27       -4.624694   1.000000
   28       -4.580079   1.000000
   29       -4.570260   1.000000
   30       -4.503753   1.000000
   31       -4.434640   1.000000
   32       -4.164593   1.000000
   33       -4.138457   1.000000
   34       -4.125639   1.000000
   35       -4.077401   1.000000
   36       -4.013762   1.000000
   37       -3.999232   1.000000
   38       -3.968724   1.000000
   39       -3.890164   1.000000
   40       -3.845939   1.000000
   41       -3.823320   1.000000
   42       -3.672152   1.000000
   43       -3.610816   1.000000
   44       -3.601832   1.000000
   45       -3.563060   1.000000
   46       -3.443057   1.000000
   47       -3.298597   1.000000
   48       -3.113097   1.000000
   49       -2.950773   1.000000
   50       -2.804881   1.000000
   51       -2.700454   1.000000
   52       -2.445345   1.000000
   53       -2.408350   1.000000
   54       -2.290925   1.000000
   55       -2.159506   1.000000
   56       -2.043505   1.000000
   57       -1.996997   1.000000
   58       -1.900132   1.000000
   59       -1.860479   1.000000
   60       -1.836798   1.000000
   61       -1.785823   1.000000
   62       -1.750630   1.000000
   63       -1.638376   1.000000
   64       -1.587360   1.000000
   65       -1.535560   1.000001
   66       -1.444236   1.000022
   67       -1.282157   1.001535
   68       -1.215618   1.005648
   69       -1.133242   1.018928
   70       -1.072492   1.032217
   71       -1.038087   1.035445
   72       -0.983935   1.018406
   73       -0.940769   0.969572
   74       -0.898317   0.879121
   75       -0.872356   0.801818
   76       -0.793527   0.493850
   77       -0.777436   0.426077
   78       -0.757044   0.342634
   79       -0.712140   0.180591
   80       -0.600792  -0.021843
   81       -0.523416  -0.033196
   82       -0.425597  -0.012694
   83       -0.407980  -0.009807
   84       -0.332334  -0.002560
   85       -0.294630  -0.001149
   86        0.194453  -0.000000
   87        0.252384  -0.000000
   88        0.827528  -0.000000
   89        0.855701  -0.000000
   90        1.107776  -0.000000
   91        1.292750  -0.000000
   92        1.610619  -0.000000
   93        2.171746  -0.000000
   94        2.512209  -0.000000
   95        3.044887  -0.000000
   96        3.387164  -0.000000
 
  0.1250000E+00  0.1875000E+00  0.0000000E+00  0.2083333E-01
    1       -9.980585   1.000000
    2       -8.710457   1.000000
    3       -7.653699   1.000000
    4       -7.519866   1.000000
    5       -7.428554   1.000000
    6       -7.350282   1.000000
    7       -7.231095   1.000000
    8       -7.212935   1.000000
    9       -7.167715   1.000000
   10       -7.089568   1.000000
   11       -6.739114   1.000000
   12       -6.711357   1.000000
   13       -6.699379   1.000000
   14       -6.694484   1.000000
   15       -6.640131   1.000000
   16       -6.485333   1.000000
   17       -6.436235   1.000000
   18       -6.378588   1.000000
   19       -6.313588   1.000000
   20       -5.741603   1.000000
   21       -5.712314   1.000000
   22       -5.618725   1.000000
   23       -4.981527   1.000000
   24       -4.906063   1.000000
   25       -4.842789   1.000000
   26       -4.718771   1.000000
   27       -4.638496   1.000000
   28       -4.578304   1.000000
   29       -4.544577   1.000000
   30       -4.522548   1.000000
   31       -4.422702   1.000000
   32       -4.172855   1.000000
   33       -4.140427   1.000000
   34       -4.136347   1.000000
   35       -4.063357   1.000000
   36       -4.026278   1.000000
   37       -3.983491   1.000000
   38       -3.977789   1.000000
   39       -3.883179   1.000000
   40       -3.841986   1.000000
   41       -3.815358   1.000000
   42       -3.667728   1.000000
   43       -3.622471   1.000000
   44       -3.604364   1.000000
   45       -3.544454   1.000000
   46       -3.465273   1.000000
   47       -3.277609   1.000000
   48       -3.125403   1.000000
   49       -2.951558   1.000000
   50       -2.828795   1.000000
   51       -2.680200   1.000000
   52       -2.450281   1.000000
   53       -2.407039   1.000000
   54       -2.318770   1.000000
   55       -2.140252   1.000000
   56       -2.026031   1.000000
   57       -1.978267   1.000000
   58       -1.936154   1.000000
   59       -1.861055   1.000000
   60       -1.835516   1.000000
   61       -1.764395   1.000000
   62       -1.737071   1.000000
   63       -1.651674   1.000000
   64       -1.595954   1.000000
   65       -1.513525   1.000002
   66       -1.443705   1.000022
   67       -1.284208   1.001468
   68       -1.223766   1.004886
   69       -1.154329   1.014557
   70       -1.070676   1.032530
   71       -1.056606   1.034504
   72       -0.989798   1.022225
   73       -0.937180   0.963654
   74       -0.909581   0.907531
   75       -0.859367   0.757422
   76       -0.810650   0.566077
   77       -0.774909   0.415544
   78       -0.723175   0.216786
   79       -0.697931   0.138113
   80       -0.571595  -0.033393
   81       -0.555165  -0.035353
   82       -0.451023  -0.017693
   83       -0.377197  -0.005935
   84       -0.325601  -0.002233
   85       -0.304125  -0.001417
   86        0.193592  -0.000000
   87        0.244403  -0.000000
   88        0.829746  -0.000000
   89        0.859924  -0.000000
   90        1.106712  -0.000000
   91        1.285469  -0.000000
   92        1.611352  -0.000000
   93        2.172668  -0.000000
   94        2.512342  -0.000000
   95        3.044900  -0.000000
   96        3.388481  -0.000000
 
 -0.6250000E-01  0.1250000E+00  0.0000000E+00  0.2083333E-01
    1       -9.980590   1.000000
    2       -8.710493   1.000000
    3       -7.653911   1.000000
    4       -7.519996   1.000000
    5       -7.428743   1.000000
    6       -7.349198   1.000000
    7       -7.231699   1.000000
    8       -7.215534   1.000000
    9       -7.162188   1.000000
   10       -7.092761   1.000000
   11       -6.739551   1.000000
   12       -6.712943   1.000000
   13       -6.704939   1.000000
   14       -6.688774   1.000000
   15       -6.637158   1.000000
   16       -6.486434   1.000000
   17       -6.433641   1.000000
   18       -6.381197   1.000000
   19       -6.313432   1.000000
   20       -5.738328   1.000000
   21       -5.713212   1.000000
   22       -5.621528   1.000000
   23       -4.971698   1.000000
   24       -4.917297   1.000000
   25       -4.842515   1.000000
   26       -4.711315   1.000000
   27       -4.636523   1.000000
   28       -4.575637   1.000000
   29       -4.563531   1.000000
   30       -4.504895   1.000000
   31       -4.432859   1.000000
   32       -4.171379   1.000000
   33       -4.141201   1.000000
   34       -4.127418   1.000000
   35       -4.067722   1.000000
   36       -4.018391   1.000000
   37       -4.000296   1.000000
   38       -3.972507   1.000000
   39       -3.875896   1.000000
   40       -3.847507   1.000000
   41       -3.819537   1.000000
   42       -3.671159   1.000000
   43       -3.617837   1.000000
   44       -3.608698   1.000000
   45       -3.549247   1.000000
   46       -3.457709   1.000000
   47       -3.279438   1.000000
   48       -3.124311   1.000000
   49       -2.948155   1.000000
   50       -2.819966   1.000000
   51       -2.689032   1.000000
   52       -2.440483   1.000000
   53       -2.417693   1.000000
   54       -2.301923   1.000000
   55       -2.147322   1.000000
   56       -2.036996   1.000000
   57       -1.998193   1.000000
   58       -1.903514   1.000000
   59       -1.863334   1.000000
   60       -1.829715   1.000000
   61       -1.788886   1.000000
   62       -1.736120   1.000000
   63       -1.658755   1.000000
   64       -1.577849   1.000000
   65       -1.527302   1.000001
   66       -1.450855   1.000018
   67       -1.285217   1.001436
   68       -1.204815   1.006798
   69       -1.111505   1.023870
   70       -1.077770   1.031251
   71       -1.063834   1.033597
   72       -0.992955   1.024044
   73       -0.924429   0.940089
   74       -0.910543   0.909809
   75       -0.884241   0.839197
   76       -0.825998   0.629510
   77       -0.772517   0.405610
   78       -0.731724   0.246603
   79       -0.698229   0.138954
   80       -0.579324  -0.031460
   81       -0.560242  -0.035028
   82       -0.441751  -0.015766
   83       -0.371443  -0.005367
   84       -0.331736  -0.002529
   85       -0.292509  -0.001096
   86        0.199754  -0.000000
   87        0.241033  -0.000000
   88        0.836247  -0.000000
   89        0.853165  -0.000000
   90        1.105868  -0.000000
   91        1.286115  -0.000000
   92        1.612412  -0.000000
   93        2.172616  -0.000000
   94        2.512301  -0.000000
   95        3.044711  -0.000000
   96        3.387756  -0.000000
 
  0.3125000E+00  0.6250000E-01  0.0000000E+00  0.2083333E-01
    1       -9.525893   1.000000
    2       -8.274731   1.000000
    3       -7.528256   1.000000
    4       -7.230805   1.000000
    5       -7.108599   1.000000
    6       -7.099411   1.000000
    7       -7.085722   1.000000
    8       -6.891041   1.000000
    9       -6.860127   1.000000
   10       -6.785597   1.000000
   11       -6.664896   1.000000
   12       -6.490680   1.000000
   13       -6.472285   1.000000
   14       -6.437534   1.000000
   15       -6.328325   1.000000
   16       -6.283176   1.000000
   17       -6.122285   1.000000
   18       -6.032224   1.000000
   19       -5.932830   1.000000
   20       -5.598720   1.000000
   21       -5.581630   1.000000
   22       -5.515125   1.000000
   23       -5.093449   1.000000
   24       -5.033118   1.000000
   25       -4.940283   1.000000
   26       -4.826211   1.000000
   27       -4.775647   1.000000
   28       -4.714373   1.000000
   29       -4.498249   1.000000
   30       -4.469557   1.000000
   31       -4.409618   1.000000
   32       -4.272215   1.000000
   33       -4.246273   1.000000
   34       -4.222219   1.000000
   35       -4.112316   1.000000
   36       -4.077267   1.000000
   37       -4.016032   1.000000
   38       -3.930581   1.000000
   39       -3.912762   1.000000
   40       -3.857186   1.000000
   41       -3.811945   1.000000
   42       -3.795875   1.000000
   43       -3.774931   1.000000
   44       -3.718137   1.000000
   45       -3.652336   1.000000
   46       -3.498542   1.000000
   47       -3.437486   1.000000
   48       -3.285845   1.000000
   49       -3.035267   1.000000
   50       -2.995043   1.000000
   51       -2.875131   1.000000
   52       -2.789466   1.000000
   53       -2.735478   1.000000
   54       -2.707621   1.000000
   55       -2.601633   1.000000
   56       -2.570246   1.000000
   57       -2.532567   1.000000
   58       -2.501537   1.000000
   59       -2.466126   1.000000
   60       -2.365383   1.000000
   61       -2.205768   1.000000
   62       -2.140214   1.000000
   63       -2.071321   1.000000
   64       -1.933053   1.000000
   65       -1.872779   1.000000
   66       -1.801671   1.000000
   67       -1.687288   1.000000
   68       -1.595622   1.000000
   69       -1.577231   1.000000
   70       -1.492494   1.000005
   71       -1.450923   1.000018
   72       -1.406920   1.000067
   73       -1.263740   1.002261
   74       -1.209727   1.006254
   75       -1.129323   1.019796
   76       -1.087810   1.029217
   77       -1.047557   1.035245
   78       -1.001387   1.028140
   79       -0.890096   0.856391
   80       -0.841005   0.689144
   81       -0.785012   0.457877
   82       -0.757789   0.345606
   83       -0.637297   0.012975
   84       -0.512224  -0.031257
   85       -0.406407  -0.009573
   86        0.316944  -0.000000
   87        0.377345  -0.000000
   88        0.573508  -0.000000
   89        0.918419  -0.000000
   90        1.741280  -0.000000
   91        1.898944  -0.000000
   92        1.929334  -0.000000
   93        2.274592  -0.000000
   94        2.680906  -0.000000
   95        3.205372  -0.000000
   96        3.930834  -0.000000
 
  0.2500000E+00  0.3125000E+00  0.0000000E+00  0.2083333E-01
    1       -9.525848   1.000000
    2       -8.274385   1.000000
    3       -7.529256   1.000000
    4       -7.226156   1.000000
    5       -7.111570   1.000000
    6       -7.100087   1.000000
    7       -7.084989   1.000000
    8       -6.889021   1.000000
    9       -6.867003   1.000000
   10       -6.779757   1.000000
   11       -6.666461   1.000000
   12       -6.490335   1.000000
   13       -6.471040   1.000000
   14       -6.430554   1.000000
   15       -6.332632   1.000000
   16       -6.290259   1.000000
   17       -6.120294   1.000000
   18       -6.037472   1.000000
   19       -5.926715   1.000000
   20       -5.619267   1.000000
   21       -5.570571   1.000000
   22       -5.504952   1.000000
   23       -5.096799   1.000000
   24       -5.028635   1.000000
   25       -4.947097   1.000000
   26       -4.828246   1.000000
   27       -4.802865   1.000000
   28       -4.683258   1.000000
   29       -4.520703   1.000000
   30       -4.444740   1.000000
   31       -4.402762   1.000000
   32       -4.284972   1.000000
   33       -4.253180   1.000000
   34       -4.211046   1.000000
   35       -4.126683   1.000000
   36       -4.071903   1.000000
   37       -4.015270   1.000000
   38       -3.943257   1.000000
   39       -3.892476   1.000000
   40       -3.852429   1.000000
   41       -3.813685   1.000000
   42       -3.791995   1.000000
   43       -3.775223   1.000000
   44       -3.732924   1.000000
   45       -3.613625   1.000000
   46       -3.499428   1.000000
   47       -3.452581   1.000000
   48       -3.289529   1.000000
   49       -3.061979   1.000000
   50       -2.989841   1.000000
   51       -2.881210   1.000000
   52       -2.789145   1.000000
   53       -2.731529   1.000000
   54       -2.679475   1.000000
   55       -2.596563   1.000000
   56       -2.588359   1.000000
   57       -2.545838   1.000000
   58       -2.503887   1.000000
   59       -2.469815   1.000000
   60       -2.372404   1.000000
   61       -2.206932   1.000000
   62       -2.114054   1.000000
   63       -2.068746   1.000000
   64       -1.906971   1.000000
   65       -1.890893   1.000000
   66       -1.831482   1.000000
   67       -1.670715   1.000000
   68       -1.592166   1.000000
   69       -1.563968   1.000000
   70       -1.506451   1.000003
   71       -1.425586   1.000039
   72       -1.381253   1.000136
   73       -1.282541   1.001522
   74       -1.219121   1.005310
   75       -1.148524   1.015703
   76       -1.101811   1.026106
   77       -1.041149   1.035452
   78       -0.990753   1.022792
   79       -0.911480   0.912005
   80       -0.842858   0.696293
   81       -0.788772   0.473742
   82       -0.707169   0.165185
   83       -0.627096   0.000543
   84       -0.585420  -0.029403
   85       -0.358278  -0.004228
   86        0.302730  -0.000000
   87        0.383226  -0.000000
   88        0.564881  -0.000000
   89        0.921410  -0.000000
   90        1.743333  -0.000000
   91        1.892184  -0.000000
   92        1.927927  -0.000000
   93        2.279737  -0.000000
   94        2.681509  -0.000000
   95        3.207125  -0.000000
   96        3.931190  -0.000000
 
 -0.6250000E-01  0.2500000E+00  0.0000000E+00  0.2083333E-01
    1       -9.525860   1.000000
    2       -8.274454   1.000000
    3       -7.529258   1.000000
    4       -7.226486   1.000000
    5       -7.111119   1.000000
    6       -7.098682   1.000000
    7       -7.086859   1.000000
    8       -6.889229   1.000000
    9       -6.866015   1.000000
   10       -6.780218   1.000000
   11       -6.666752   1.000000
   12       -6.488830   1.000000
   13       -6.475475   1.000000
   14       -6.429094   1.000000
   15       -6.335440   1.000000
   16       -6.283509   1.000000
   17       -6.121720   1.000000
   18       -6.039153   1.000000
   19       -5.926131   1.000000
   20       -5.619175   1.000000
   21       -5.566881   1.000000
   22       -5.509229   1.000000
   23       -5.091625   1.000000
   24       -5.025556   1.000000
   25       -4.955634   1.000000
   26       -4.826124   1.000000
   27       -4.797782   1.000000
   28       -4.683459   1.000000
   29       -4.507334   1.000000
   30       -4.465291   1.000000
   31       -4.403192   1.000000
   32       -4.287472   1.000000
   33       -4.246287   1.000000
   34       -4.210371   1.000000
   35       -4.135471   1.000000
   36       -4.073573   1.000000
   37       -4.008659   1.000000
   38       -3.932237   1.000000
   39       -3.911296   1.000000
   40       -3.856088   1.000000
   41       -3.834554   1.000000
   42       -3.781978   1.000000
   43       -3.758128   1.000000
   44       -3.716483   1.000000
   45       -3.604626   1.000000
   46       -3.528140   1.000000
   47       -3.446689   1.000000
   48       -3.290465   1.000000
   49       -3.056303   1.000000
   50       -2.990175   1.000000
   51       -2.878270   1.000000
   52       -2.798294   1.000000
   53       -2.729568   1.000000
   54       -2.678348   1.000000
   55       -2.609238   1.000000
   56       -2.575551   1.000000
   57       -2.543134   1.000000
   58       -2.500350   1.000000
   59       -2.464853   1.000000
   60       -2.372460   1.000000
   61       -2.206615   1.000000
   62       -2.100840   1.000000
   63       -2.078610   1.000000
   64       -1.930380   1.000000
   65       -1.879162   1.000000
   66       -1.821113   1.000000
   67       -1.694495   1.000000
   68       -1.598280   1.000000
   69       -1.535635   1.000001
   70       -1.512113   1.000002
   71       -1.460984   1.000013
   72       -1.373397   1.000169
   73       -1.270377   1.001971
   74       -1.212044   1.006010
   75       -1.156341   1.014171
   76       -1.092038   1.028302
   77       -1.043918   1.035398
   78       -0.994186   1.024710
   79       -0.912995   0.915510
   80       -0.838379   0.678926
   81       -0.778769   0.431650
   82       -0.713452   0.184753
   83       -0.618025  -0.008672
   84       -0.595425  -0.024895
   85       -0.357171  -0.004142
   86        0.303899  -0.000000
   87        0.381988  -0.000000
   88        0.565865  -0.000000
   89        0.923101  -0.000000
   90        1.743852  -0.000000
   91        1.886014  -0.000000
   92        1.932419  -0.000000
   93        2.279463  -0.000000
   94        2.682473  -0.000000
   95        3.206590  -0.000000
   96        3.930015  -0.000000
 
  0.4375000E+00  0.6250000E-01  0.0000000E+00  0.2083333E-01
    1       -8.885447   1.000000
    2       -7.898729   1.000000
    3       -7.710703   1.000000
    4       -7.134398   1.000000
    5       -6.779366   1.000000
    6       -6.759418   1.000000
    7       -6.599079   1.000000
    8       -6.551871   1.000000
    9       -6.532470   1.000000
   10       -6.519176   1.000000
   11       -6.469665   1.000000
   12       -6.220469   1.000000
   13       -6.162986   1.000000
   14       -6.064842   1.000000
   15       -6.047863   1.000000
   16       -5.966710   1.000000
   17       -5.815755   1.000000
   18       -5.651702   1.000000
   19       -5.543518   1.000000
   20       -5.430957   1.000000
   21       -5.377658   1.000000
   22       -5.343852   1.000000
   23       -5.292466   1.000000
   24       -5.190379   1.000000
   25       -5.044604   1.000000
   26       -5.013135   1.000000
   27       -4.961005   1.000000
   28       -4.743533   1.000000
   29       -4.716471   1.000000
   30       -4.660408   1.000000
   31       -4.649232   1.000000
   32       -4.500749   1.000000
   33       -4.445684   1.000000
   34       -4.376568   1.000000
   35       -4.315780   1.000000
   36       -4.228651   1.000000
   37       -4.136918   1.000000
   38       -4.074333   1.000000
   39       -3.970546   1.000000
   40       -3.888514   1.000000
   41       -3.812571   1.000000
   42       -3.766433   1.000000
   43       -3.721907   1.000000
   44       -3.677717   1.000000
   45       -3.623692   1.000000
   46       -3.589089   1.000000
   47       -3.543877   1.000000
   48       -3.488298   1.000000
   49       -3.373270   1.000000
   50       -3.334742   1.000000
   51       -3.291164   1.000000
   52       -3.264950   1.000000
   53       -3.202091   1.000000
   54       -3.010855   1.000000
   55       -2.985502   1.000000
   56       -2.926401   1.000000
   57       -2.836991   1.000000
   58       -2.809901   1.000000
   59       -2.774295   1.000000
   60       -2.537301   1.000000
   61       -2.504287   1.000000
   62       -2.376852   1.000000
   63       -2.340415   1.000000
   64       -2.255597   1.000000
   65       -2.196610   1.000000
   66       -2.164806   1.000000
   67       -2.040075   1.000000
   68       -2.001463   1.000000
   69       -1.922658   1.000000
   70       -1.865451   1.000000
   71       -1.808621   1.000000
   72       -1.790290   1.000000
   73       -1.695379   1.000000
   74       -1.568698   1.000000
   75       -1.378072   1.000149
   76       -1.254292   1.002737
   77       -1.242112   1.003473
   78       -1.123578   1.021091
   79       -0.907783   0.903210
   80       -0.843072   0.697115
   81       -0.800325   0.522605
   82       -0.746061   0.299712
   83       -0.636265   0.011613
   84       -0.521888  -0.032957
   85       -0.379092  -0.006133
   86       -0.172673  -0.000049
   87        0.731794  -0.000000
   88        1.021278  -0.000000
   89        1.035928  -0.000000
   90        1.831455  -0.000000
   91        1.979634  -0.000000
   92        2.088372  -0.000000
   93        2.410914  -0.000000
   94        3.045468  -0.000000
   95        3.544365  -0.000000
   96        4.024040  -0.000000
 
  0.3750000E+00  0.4375000E+00  0.0000000E+00  0.2083333E-01
    1       -8.885242   1.000000
    2       -7.897443   1.000000
    3       -7.712347   1.000000
    4       -7.132814   1.000000
    5       -6.776564   1.000000
    6       -6.758212   1.000000
    7       -6.593668   1.000000
    8       -6.557049   1.000000
    9       -6.542267   1.000000
   10       -6.516149   1.000000
   11       -6.465289   1.000000
   12       -6.217984   1.000000
   13       -6.171485   1.000000
   14       -6.065207   1.000000
   15       -6.032224   1.000000
   16       -5.974550   1.000000
   17       -5.820665   1.000000
   18       -5.678858   1.000000
   19       -5.517469   1.000000
   20       -5.426954   1.000000