   16   16    1    1
  0.5150799E+02  0.5557859E-09  0.5557859E-09  0.3080696E-08  0.5000000E-15
  1.000000000000000E-004
  CAR 
 unknown system                          
    160     20     96
 
  0.6250000E-01  0.6250000E-01  0.0000000E+00  0.3125000E-01
    1      -10.180038   1.000000
    2       -8.910258   1.000000
    3       -7.847243   1.000000
    4       -7.727445   1.000000
    5       -7.449981   1.000000
    6       -7.427088   1.000000
    7       -7.422682   1.000000
    8       -7.297425   1.000000
    9       -7.284892   1.000000
   10       -7.273103   1.000000
   11       -6.837346   1.000000
   12       -6.816515   1.000000
   13       -6.812929   1.000000
   14       -6.786775   1.000000
   15       -6.775154   1.000000
   16       -6.593132   1.000000
   17       -6.535884   1.000000
   18       -6.520481   1.000000
   19       -6.485413   1.000000
   20       -5.783929   1.000000
   21       -5.782321   1.000000
   22       -5.683951   1.000000
   23       -4.915865   1.000000
   24       -4.908737   1.000000
   25       -4.802348   1.000000
   26       -4.671306   1.000000
   27       -4.651068   1.000000
   28       -4.648537   1.000000
   29       -4.607607   1.000000
   30       -4.516671   1.000000
   31       -4.361978   1.000000
   32       -4.316838   1.000000
   33       -4.197977   1.000000
   34       -4.185313   1.000000
   35       -4.043360   1.000000
   36       -4.017833   1.000000
   37       -3.974940   1.000000
   38       -3.974533   1.000000
   39       -3.943309   1.000000
   40       -3.807888   1.000000
   41       -3.699071   1.000000
   42       -3.676885   1.000000
   43       -3.499441   1.000000
   44       -3.451799   1.000000
   45       -3.451147   1.000000
   46       -3.182725   1.000000
   47       -3.150760   1.000000
   48       -2.921814   1.000000
   49       -2.872776   1.000000
   50       -2.757674   1.000000
   51       -2.724461   1.000000
   52       -2.344894   1.000000
   53       -2.338357   1.000000
   54       -2.077096   1.000000
   55       -2.062088   1.000000
   56       -1.854591   1.000000
   57       -1.827007   1.000000
   58       -1.728546   1.000000
   59       -1.720888   1.000000
   60       -1.601646   1.000000
   61       -1.596997   1.000000
   62       -1.471565   1.000012
   63       -1.176820   1.011998
   64       -1.149474   1.017255
   65       -1.122581   1.023267
   66       -1.100338   1.028340
   67       -1.043954   1.035379
   68       -0.983766   1.011667
   69       -0.945134   0.962775
   70       -0.921139   0.914756
   71       -0.813743   0.543480
   72       -0.788009   0.434867
   73       -0.739072   0.242602
   74       -0.728142   0.204999
   75       -0.703568   0.130221
   76       -0.683058   0.079103
   77       -0.653782   0.024370
   78       -0.524380  -0.031940
   79       -0.509521  -0.028981
   80       -0.479614  -0.022181
   81       -0.341468  -0.002594
   82       -0.182810  -0.000052
   83       -0.103778  -0.000004
   84       -0.010357  -0.000000
   85        0.039019  -0.000000
   86        0.087230  -0.000000
   87        0.382033  -0.000000
   88        0.414027  -0.000000
   89        1.208688  -0.000000
   90        1.494814  -0.000000
   91        1.623157  -0.000000
   92        1.646394  -0.000000
   93        1.776680  -0.000000
   94        1.785880  -0.000000
   95        2.592914  -0.000000
   96        2.593113  -0.000000
 
  0.1875000E+00  0.6250000E-01  0.0000000E+00  0.6250000E-01
    1       -9.976012   1.000000
    2       -8.708699   1.000000
    3       -7.641893   1.000000
    4       -7.533663   1.000000
    5       -7.431904   1.000000
    6       -7.354136   1.000000
    7       -7.236390   1.000000
    8       -7.215663   1.000000
    9       -7.167217   1.000000
   10       -7.100445   1.000000
   11       -6.741676   1.000000
   12       -6.723936   1.000000
   13       -6.710732   1.000000
   14       -6.701932   1.000000
   15       -6.636134   1.000000
   16       -6.475975   1.000000
   17       -6.431921   1.000000
   18       -6.361972   1.000000
   19       -6.305385   1.000000
   20       -5.726948   1.000000
   21       -5.717759   1.000000
   22       -5.629723   1.000000
   23       -4.959109   1.000000
   24       -4.900479   1.000000
   25       -4.840855   1.000000
   26       -4.727236   1.000000
   27       -4.654908   1.000000
   28       -4.589243   1.000000
   29       -4.570267   1.000000
   30       -4.527586   1.000000
   31       -4.476318   1.000000
   32       -4.203450   1.000000
   33       -4.168656   1.000000
   34       -4.122926   1.000000
   35       -4.088962   1.000000
   36       -4.039282   1.000000
   37       -3.999826   1.000000
   38       -3.954759   1.000000
   39       -3.906094   1.000000
   40       -3.857980   1.000000
   41       -3.773031   1.000000
   42       -3.651532   1.000000
   43       -3.611594   1.000000
   44       -3.593434   1.000000
   45       -3.522385   1.000000
   46       -3.455064   1.000000
   47       -3.313539   1.000000
   48       -3.101110   1.000000
   49       -2.964429   1.000000
   50       -2.781736   1.000000
   51       -2.691287   1.000000
   52       -2.458632   1.000000
   53       -2.407123   1.000000
   54       -2.332975   1.000000
   55       -2.129088   1.000000
   56       -2.010153   1.000000
   57       -1.931382   1.000000
   58       -1.926773   1.000000
   59       -1.831003   1.000000
   60       -1.819402   1.000000
   61       -1.779285   1.000000
   62       -1.744243   1.000000
   63       -1.622304   1.000000
   64       -1.588064   1.000000
   65       -1.515082   1.000003
   66       -1.446338   1.000027
   67       -1.216365   1.006453
   68       -1.173466   1.012582
   69       -1.112646   1.025564
   70       -1.089536   1.030609
   71       -1.051889   1.035412
   72       -1.023980   1.032761
   73       -0.980865   1.009092
   74       -0.936041   0.946264
   75       -0.850506   0.693121
   76       -0.812801   0.539509
   77       -0.777427   0.390902
   78       -0.755517   0.303483
   79       -0.704525   0.132863
   80       -0.670928   0.053859
   81       -0.536057  -0.033799
   82       -0.464481  -0.018772
   83       -0.382859  -0.005652
   84       -0.283123  -0.000727
   85       -0.176828  -0.000044
   86        0.185142  -0.000000
   87        0.279550  -0.000000
   88        0.817814  -0.000000
   89        0.849143  -0.000000
   90        1.102608  -0.000000
   91        1.293754  -0.000000
   92        1.625887  -0.000000
   93        2.147735  -0.000000
   94        2.527419  -0.000000
   95        3.020168  -0.000000
   96        3.373694  -0.000000
 
  0.3125000E+00  0.6250000E-01  0.0000000E+00  0.6250000E-01
    1       -9.522260   1.000000
    2       -8.272729   1.000000
    3       -7.530849   1.000000
    4       -7.213791   1.000000
    5       -7.119743   1.000000
    6       -7.108229   1.000000
    7       -7.091596   1.000000
    8       -6.895699   1.000000
    9       -6.867392   1.000000
   10       -6.791533   1.000000
   11       -6.661788   1.000000
   12       -6.507070   1.000000
   13       -6.483459   1.000000
   14       -6.441542   1.000000
   15       -6.331569   1.000000
   16       -6.280887   1.000000
   17       -6.125808   1.000000
   18       -6.023954   1.000000
   19       -5.926588   1.000000
   20       -5.597683   1.000000
   21       -5.571976   1.000000
   22       -5.515721   1.000000
   23       -5.091654   1.000000
   24       -5.039045   1.000000
   25       -4.946092   1.000000
   26       -4.844675   1.000000
   27       -4.782755   1.000000
   28       -4.716937   1.000000
   29       -4.526305   1.000000
   30       -4.474406   1.000000
   31       -4.423387   1.000000
   32       -4.285506   1.000000
   33       -4.251013   1.000000
   34       -4.227887   1.000000
   35       -4.122673   1.000000
   36       -4.078469   1.000000
   37       -4.027094   1.000000
   38       -3.919269   1.000000
   39       -3.907016   1.000000
   40       -3.864311   1.000000
   41       -3.809641   1.000000
   42       -3.800174   1.000000
   43       -3.776785   1.000000
   44       -3.750781   1.000000
   45       -3.636758   1.000000
   46       -3.535674   1.000000
   47       -3.448511   1.000000
   48       -3.235312   1.000000
   49       -3.058768   1.000000
   50       -2.996923   1.000000
   51       -2.883106   1.000000
   52       -2.794051   1.000000
   53       -2.705353   1.000000
   54       -2.692565   1.000000
   55       -2.581412   1.000000
   56       -2.555338   1.000000
   57       -2.512027   1.000000
   58       -2.477657   1.000000
   59       -2.412900   1.000000
   60       -2.323738   1.000000
   61       -2.163990   1.000000
   62       -2.119028   1.000000
   63       -2.011821   1.000000
   64       -1.949642   1.000000
   65       -1.874635   1.000000
   66       -1.805030   1.000000
   67       -1.704419   1.000000
   68       -1.574571   1.000000
   69       -1.562483   1.000001
   70       -1.496142   1.000006
   71       -1.472163   1.000012
   72       -1.398144   1.000108
   73       -1.257065   1.003063
   74       -1.236515   1.004521
   75       -1.147627   1.017647
   76       -1.091167   1.030281
   77       -1.053945   1.035344
   78       -0.979608   1.007925
   79       -0.872383   0.773353
   80       -0.837449   0.641572
   81       -0.796413   0.470232
   82       -0.712405   0.155468
   83       -0.594459  -0.029186
   84       -0.514341  -0.029995
   85       -0.494888  -0.025709
   86        0.314887  -0.000000
   87        0.376832  -0.000000
   88        0.555149  -0.000000
   89        0.939706  -0.000000
   90        1.721281  -0.000000
   91        1.888845  -0.000000
   92        1.925731  -0.000000
   93        2.308929  -0.000000
   94        2.672313  -0.000000
   95        3.235507  -0.000000
   96        3.918745  -0.000000
 
  0.4375000E+00  0.6250000E-01  0.0000000E+00  0.6250000E-01
    1       -8.882930   1.000000
    2       -7.897500   1.000000
    3       -7.710472   1.000000
    4       -7.134725   1.000000
    5       -6.772121   1.000000
    6       -6.759177   1.000000
    7       -6.604162   1.000000
    8       -6.553587   1.000000
    9       -6.542689   1.000000
   10       -6.534317   1.000000
   11       -6.474755   1.000000
   12       -6.233846   1.000000
   13       -6.172263   1.000000
   14       -6.066354   1.000000
   15       -6.049787   1.000000
   16       -5.978078   1.000000
   17       -5.830288   1.000000
   18       -5.677678   1.000000
   19       -5.539525   1.000000
   20       -5.429373   1.000000
   21       -5.369884   1.000000
   22       -5.341937   1.000000
   23       -5.300253   1.000000
   24       -5.186221   1.000000
   25       -5.054582   1.000000
   26       -5.019362   1.000000
   27       -4.971684   1.000000
   28       -4.762667   1.000000
   29       -4.716316   1.000000
   30       -4.670590   1.000000
   31       -4.649836   1.000000
   32       -4.502542   1.000000
   33       -4.461219   1.000000
   34       -4.401273   1.000000
   35       -4.334836   1.000000
   36       -4.211785   1.000000
   37       -4.143358   1.000000
   38       -4.072551   1.000000
   39       -3.968581   1.000000
   40       -3.876504   1.000000
   41       -3.791250   1.000000
   42       -3.766981   1.000000
   43       -3.730616   1.000000
   44       -3.674015   1.000000
   45       -3.624237   1.000000
   46       -3.603071   1.000000
   47       -3.525707   1.000000
   48       -3.488757   1.000000
   49       -3.361946   1.000000
   50       -3.333058   1.000000
   51       -3.280595   1.000000
   52       -3.234003   1.000000
   53       -3.166759   1.000000
   54       -3.011935   1.000000
   55       -2.957908   1.000000
   56       -2.945408   1.000000
   57       -2.858613   1.000000
   58       -2.772931   1.000000
   59       -2.737063   1.000000
   60       -2.529201   1.000000
   61       -2.461888   1.000000
   62       -2.369551   1.000000
   63       -2.336850   1.000000
   64       -2.259195   1.000000
   65       -2.224553   1.000000
   66       -2.134288   1.000000
   67       -2.081410   1.000000
   68       -1.982640   1.000000
   69       -1.952026   1.000000
   70       -1.870896   1.000000
   71       -1.814904   1.000000
   72       -1.777485   1.000000
   73       -1.648334   1.000000
   74       -1.490025   1.000007
   75       -1.298273   1.001299
   76       -1.250232   1.003496
   77       -1.204732   1.007831
   78       -1.121969   1.023409
   79       -0.904263   0.872317
   80       -0.837549   0.641975
   81       -0.790314   0.444538
   82       -0.756362   0.306736
   83       -0.656334   0.028312
   84       -0.522750  -0.031643
   85       -0.500403  -0.026967
   86       -0.204253  -0.000096
   87        0.696766  -0.000000
   88        1.021326  -0.000000
   89        1.075733  -0.000000
   90        1.815931  -0.000000
   91        1.968869  -0.000000
   92        2.060208  -0.000000
   93        2.482044  -0.000000
   94        3.038031  -0.000000
   95        3.579527  -0.000000
   96        4.010946  -0.000000
 
 -0.4375000E+00  0.6250000E-01  0.0000000E+00  0.6250000E-01
    1       -8.532159   1.000000
    2       -8.192199   1.000000
    3       -7.455197   1.000000
    4       -7.248537   1.000000
    5       -6.669043   1.000000
    6       -6.653470   1.000000
    7       -6.531395   1.000000
    8       -6.464059   1.000000
    9       -6.445987   1.000000
   10       -6.362710   1.000000
   11       -6.331953   1.000000
   12       -6.195056   1.000000
   13       -6.134369   1.000000
   14       -6.023392   1.000000
   15       -5.875356   1.000000
   16       -5.764584   1.000000
   17       -5.677385   1.000000
   18       -5.641309   1.000000
   19       -5.567765   1.000000
   20       -5.487027   1.000000
   21       -5.334084   1.000000
   22       -5.266046   1.000000
   23       -5.233546   1.000000
   24       -5.195715   1.000000
   25       -5.111414   1.000000
   26       -5.045387   1.000000
   27       -5.024388   1.000000
   28       -4.911800   1.000000
   29       -4.792320   1.000000
   30       -4.694328   1.000000
   31       -4.642662   1.000000
   32       -4.568802   1.000000
   33       -4.546785   1.000000
   34       -4.470131   1.000000
   35       -4.402856   1.000000
   36       -4.250410   1.000000
   37       -4.127831   1.000000
   38       -4.068225   1.000000
   39       -4.038885   1.000000
   40       -3.952873   1.000000
   41       -3.871392   1.000000
   42       -3.848133   1.000000
   43       -3.752615   1.000000
   44       -3.683160   1.000000
   45       -3.671302   1.000000
   46       -3.630826   1.000000
   47       -3.616726   1.000000
   48       -3.596383   1.000000
   49       -3.536772   1.000000
   50       -3.443303   1.000000
   51       -3.411663   1.000000
   52       -3.311333   1.000000
   53       -3.089020   1.000000
   54       -3.059407   1.000000
   55       -2.986615   1.000000
   56       -2.920309   1.000000
   57       -2.821756   1.000000
   58       -2.801243   1.000000
   59       -2.717544   1.000000
   60       -2.637706   1.000000
   61       -2.577391   1.000000
   62       -2.454641   1.000000
   63       -2.363313   1.000000
   64       -2.301629   1.000000
   65       -2.254049   1.000000
   66       -2.219882   1.000000
   67       -2.148905   1.000000
   68       -2.138877   1.000000
   69       -2.026063   1.000000
   70       -1.970432   1.000000
   71       -1.884787   1.000000
   72       -1.841213   1.000000
   73       -1.814791   1.000000
   74       -1.638986   1.000000
   75       -1.410321   1.000077
   76       -1.268630   1.002432
   77       -1.216507   1.006438
   78       -1.130351   1.021479
   79       -0.880417   0.800469
   80       -0.814303   0.545839
   81       -0.776531   0.387223
   82       -0.694616   0.106606
   83       -0.594860  -0.029030
   84       -0.524853  -0.032025
   85       -0.499373  -0.026733
   86       -0.400398  -0.007607
   87        0.723941  -0.000000
   88        1.091175  -0.000000
   89        1.347563  -0.000000
   90        1.658147  -0.000000
   91        1.830377  -0.000000
   92        2.090216  -0.000000
   93        2.514659  -0.000000
   94        3.586871  -0.000000
   95        3.629899  -0.000000
   96        4.023956  -0.000000
 
 -0.3125000E+00  0.6250000E-01  0.0000000E+00  0.6250000E-01
    1       -9.219504   1.000000
    2       -7.996975   1.000000
    3       -7.671268   1.000000
    4       -7.098277   1.000000
    5       -6.962484   1.000000
    6       -6.924734   1.000000
    7       -6.852583   1.000000
    8       -6.701452   1.000000
    9       -6.695901   1.000000
   10       -6.632934   1.000000
   11       -6.618565   1.000000
   12       -6.359612   1.000000
   13       -6.322984   1.000000
   14       -6.246775   1.000000
   15       -6.188619   1.000000
   16       -6.136108   1.000000
   17       -5.958573   1.000000
   18       -5.839230   1.000000
   19       -5.713739   1.000000
   20       -5.494250   1.000000
   21       -5.462748   1.000000
   22       -5.431777   1.000000
   23       -5.213514   1.000000
   24       -5.150857   1.000000
   25       -5.001145   1.000000
   26       -4.945805   1.000000
   27       -4.857779   1.000000
   28       -4.746731   1.000000
   29       -4.604693   1.000000
   30       -4.565412   1.000000
   31       -4.473914   1.000000
   32       -4.378699   1.000000
   33       -4.342933   1.000000
   34       -4.264204   1.000000
   35       -4.224920   1.000000
   36       -4.163552   1.000000
   37       -4.108706   1.000000
   38       -4.089860   1.000000
   39       -3.990061   1.000000
   40       -3.835743   1.000000
   41       -3.794586   1.000000
   42       -3.770111   1.000000
   43       -3.729512   1.000000
   44       -3.666940   1.000000
   45       -3.585948   1.000000
   46       -3.570690   1.000000
   47       -3.477372   1.000000
   48       -3.281905   1.000000
   49       -3.201523   1.000000
   50       -3.130157   1.000000
   51       -3.117464   1.000000
   52       -2.991809   1.000000
   53       -2.957706   1.000000
   54       -2.908875   1.000000
   55       -2.886318   1.000000
   56       -2.795082   1.000000
   57       -2.756460   1.000000
   58       -2.728715   1.000000
   59       -2.643300   1.000000
   60       -2.535050   1.000000
   61       -2.285163   1.000000
   62       -2.238071   1.000000
   63       -2.172383   1.000000
   64       -2.125157   1.000000
   65       -2.078359   1.000000
   66       -1.996763   1.000000
   67       -1.914234   1.000000
   68       -1.858907   1.000000
   69       -1.803533   1.000000
   70       -1.699842   1.000000
   71       -1.650266   1.000000
   72       -1.563599   1.000001
   73       -1.490531   1.000007
   74       -1.313375   1.000925
   75       -1.219707   1.006094
   76       -1.191421   1.009662
   77       -1.104024   1.027524
   78       -1.047730   1.035456
   79       -0.980805   1.009037
   80       -0.855232   0.711169
   81       -0.811059   0.532161
   82       -0.777671   0.391909
   83       -0.658712   0.032123
   84       -0.520344  -0.031190
   85       -0.500490  -0.026986
   86        0.030693  -0.000000
   87        0.639823  -0.000000
   88        0.706730  -0.000000
   89        1.013506  -0.000000
   90        1.786353  -0.000000
   91        1.994063  -0.000000
   92        2.289773  -0.000000
   93        2.414289  -0.000000
   94        2.489142  -0.000000
   95        3.462220  -0.000000
   96        3.980421  -0.000000
 
 -0.1875000E+00  0.6250000E-01  0.0000000E+00  0.6250000E-01
    1       -9.777565   1.000000
    2       -8.515529   1.000000
    3       -7.461404   1.000000
    4       -7.445978   1.000000
    5       -7.348937   1.000000
    6       -7.240421   1.000000
    7       -7.161216   1.000000
    8       -7.080412   1.000000
    9       -7.032934   1.000000
   10       -6.953935   1.000000
   11       -6.695489   1.000000
   12       -6.634710   1.000000
   13       -6.612037   1.000000
   14       -6.594872   1.000000
   15       -6.497994   1.000000
   16       -6.386244   1.000000
   17       -6.298743   1.000000
   18       -6.210921   1.000000
   19       -6.131755   1.000000
   20       -5.672259   1.000000
   21       -5.655080   1.000000
   22       -5.579485   1.000000
   23       -5.016500   1.000000
   24       -4.929119   1.000000
   25       -4.881478   1.000000
   26       -4.798844   1.000000
   27       -4.722529   1.000000
   28       -4.599459   1.000000
   29       -4.535317   1.000000
   30       -4.503702   1.000000
   31       -4.465337   1.000000
   32       -4.245368   1.000000
   33       -4.179301   1.000000
   34       -4.143602   1.000000
   35       -4.055360   1.000000
   36       -4.026404   1.000000
   37       -3.997986   1.000000
   38       -3.939319   1.000000
   39       -3.924450   1.000000
   40       -3.826280   1.000000
   41       -3.787200   1.000000
   42       -3.774233   1.000000
   43       -3.718246   1.000000
   44       -3.669596   1.000000
   45       -3.621079   1.000000
   46       -3.480199   1.000000
   47       -3.392606   1.000000
   48       -3.267256   1.000000
   49       -2.995015   1.000000
   50       -2.869481   1.000000
   51       -2.727914   1.000000
   52       -2.556365   1.000000
   53       -2.537373   1.000000
   54       -2.481827   1.000000
   55       -2.349417   1.000000
   56       -2.316284   1.000000
   57       -2.172437   1.000000
   58       -2.117364   1.000000
   59       -2.102496   1.000000
   60       -2.031385   1.000000
   61       -1.974452   1.000000
   62       -1.895235   1.000000
   63       -1.836157   1.000000
   64       -1.788940   1.000000
   65       -1.766107   1.000000
   66       -1.582687   1.000000
   67       -1.438993   1.000033
   68       -1.352608   1.000360
   69       -1.332882   1.000585
   70       -1.282894   1.001810
   71       -1.243096   1.004002
   72       -1.206650   1.007589
   73       -1.135500   1.020311
   74       -1.069727   1.033949
   75       -1.024108   1.032792
   76       -0.990257   1.016856
   77       -0.955070   0.978535
   78       -0.842758   0.662808
   79       -0.812651   0.538878
   80       -0.774886   0.380482
   81       -0.656113   0.027965
   82       -0.574514  -0.034359
   83       -0.505184  -0.028036
   84       -0.472641  -0.020589
   85       -0.300116  -0.001074
   86        0.037128  -0.000000
   87        0.432717  -0.000000
   88        0.681442  -0.000000
   89        0.863372  -0.000000
   90        1.368332  -0.000000
   91        1.575754  -0.000000
   92        1.777575  -0.000000
   93        2.202359  -0.000000
   94        2.901502  -0.000000
   95        3.060628  -0.000000
   96        3.633002  -0.000000
 
 -0.6250000E-01  0.6250000E-01  0.0000000E+00  0.3125000E-01
    1      -10.111422   1.000000
    2       -8.842194   1.000000
    3       -7.777706   1.000000
    4       -7.661870   1.000000
    5       -7.427691   1.000000
    6       -7.422940   1.000000
    7       -7.352995   1.000000
    8       -7.262885   1.000000
    9       -7.252637   1.000000
   10       -7.212236   1.000000
   11       -6.803909   1.000000
   12       -6.781689   1.000000
   13       -6.775452   1.000000
   14       -6.761611   1.000000
   15       -6.728889   1.000000
   16       -6.552444   1.000000
   17       -6.504731   1.000000
   18       -6.464809   1.000000
   19       -6.427145   1.000000
   20       -5.764709   1.000000
   21       -5.760406   1.000000
   22       -5.665371   1.000000
   23       -4.927576   1.000000
   24       -4.904317   1.000000
   25       -4.814311   1.000000
   26       -4.678583   1.000000
   27       -4.637415   1.000000
   28       -4.620706   1.000000
   29       -4.603503   1.000000
   30       -4.546350   1.000000
   31       -4.402540   1.000000
   32       -4.267178   1.000000
   33       -4.191118   1.000000
   34       -4.145100   1.000000
   35       -4.073633   1.000000
   36       -4.026106   1.000000
   37       -3.984254   1.000000
   38       -3.947755   1.000000
   39       -3.924387   1.000000
   40       -3.867251   1.000000
   41       -3.717414   1.000000
   42       -3.631257   1.000000
   43       -3.556116   1.000000
   44       -3.509439   1.000000
   45       -3.490986   1.000000
   46       -3.292870   1.000000
   47       -3.199151   1.000000
   48       -2.994126   1.000000
   49       -2.911537   1.000000
   50       -2.753506   1.000000
   51       -2.693369   1.000000
   52       -2.389361   1.000000
   53       -2.361171   1.000000
   54       -2.167432   1.000000
   55       -2.069180   1.000000
   56       -1.885672   1.000000
   57       -1.833995   1.000000
   58       -1.781859   1.000000
   59       -1.737296   1.000000
   60       -1.675308   1.000000
   61       -1.669417   1.000000
   62       -1.612148   1.000000
   63       -1.363213   1.000275
   64       -1.339176   1.000503
   65       -1.256387   1.003104
   66       -1.205232   1.007767
   67       -1.137141   1.019942
   68       -1.014196   1.029841
   69       -0.991742   1.017936
   70       -0.955966   0.979842
   71       -0.913701   0.896934
   72       -0.878218   0.793185
   73       -0.824495   0.588496
   74       -0.778795   0.396539
   75       -0.741819   0.252429
   76       -0.733374   0.222689
   77       -0.634204  -0.000950
   78       -0.613858  -0.018851
   79       -0.594291  -0.029251
   80       -0.566207  -0.035217
   81       -0.460039  -0.017810
   82       -0.361375  -0.003823
   83       -0.277450  -0.000635
   84       -0.161456  -0.000028
   85        0.107304  -0.000000
   86        0.139014  -0.000000
   87        0.378457  -0.000000
   88        0.822239  -0.000000
   89        0.917352  -0.000000
   90        0.944556  -0.000000
   91        1.464216  -0.000000
   92        1.527281  -0.000000
   93        1.995324  -0.000000
   94        2.253143  -0.000000
   95        2.506372  -0.000000
   96        3.219385  -0.000000
 
  0.1875000E+00  0.1875000E+00  0.0000000E+00  0.3125000E-01
    1       -9.909332   1.000000
    2       -8.643536   1.000000
    3       -7.576433   1.000000
    4       -7.473394   1.000000
    5       -7.464642   1.000000
    6       -7.237789   1.000000
    7       -7.233616   1.000000
    8       -7.212934   1.000000
    9       -7.083367   1.000000
   10       -7.070662   1.000000
   11       -6.732836   1.000000
   12       -6.699295   1.000000
   13       -6.673438   1.000000
   14       -6.671564   1.000000
   15       -6.566132   1.000000
   16       -6.459430   1.000000
   17       -6.383606   1.000000
   18       -6.293054   1.000000
   19       -6.262912   1.000000
   20       -5.710450   1.000000
   21       -5.695083   1.000000
   22       -5.612679   1.000000
   23       -4.969884   1.000000
   24       -4.914941   1.000000
   25       -4.850361   1.000000
   26       -4.758990   1.000000
   27       -4.672641   1.000000
   28       -4.572962   1.000000
   29       -4.550175   1.000000
   30       -4.519032   1.000000
   31       -4.495072   1.000000
   32       -4.219143   1.000000
   33       -4.137349   1.000000
   34       -4.124765   1.000000
   35       -4.105512   1.000000
   36       -4.019131   1.000000
   37       -4.013176   1.000000
   38       -3.967245   1.000000
   39       -3.880644   1.000000
   40       -3.823012   1.000000
   41       -3.811923   1.000000
   42       -3.701322   1.000000
   43       -3.644798   1.000000
   44       -3.629570   1.000000
   45       -3.496362   1.000000
   46       -3.487520   1.000000
   47       -3.409680   1.000000
   48       -3.127443   1.000000
   49       -2.981034   1.000000
   50       -2.817624   1.000000
   51       -2.697489   1.000000
   52       -2.478160   1.000000
   53       -2.445781   1.000000
   54       -2.394819   1.000000
   55       -2.187321   1.000000
   56       -2.098048   1.000000
   57       -2.011769   1.000000
   58       -2.011471   1.000000
   59       -1.918846   1.000000
   60       -1.906498   1.000000
   61       -1.850951   1.000000
   62       -1.761899   1.000000
   63       -1.711236   1.000000
   64       -1.706652   1.000000
   65       -1.534566   1.000002
   66       -1.446098   1.000027
   67       -1.276364   1.002076
   68       -1.272533   1.002246
   69       -1.216434   1.006446
   70       -1.133449   1.020774
   71       -1.131845   1.021138
   72       -1.079370   1.032492
   73       -1.039712   1.035149
   74       -0.999320   1.022848
   75       -0.954492   0.977681
   76       -0.900012   0.860504
   77       -0.813758   0.543543
   78       -0.796726   0.471555
   79       -0.754941   0.301273
   80       -0.701127   0.123582
   81       -0.611449  -0.020465
   82       -0.464902  -0.018864
   83       -0.441194  -0.014001
   84       -0.380942  -0.005465
   85       -0.276037  -0.000614
   86       -0.172354  -0.000038
   87        0.784880  -0.000000
   88        0.880932  -0.000000
   89        0.913376  -0.000000
   90        1.037782  -0.000000
   91        1.509058  -0.000000
   92        1.509866  -0.000000
   93        2.248986  -0.000000
   94        2.277221  -0.000000
   95        3.192469  -0.000000
   96        3.652704  -0.000000
 
  0.3125000E+00  0.1875000E+00  0.0000000E+00  0.6250000E-01
    1       -9.584093   1.000000
    2       -8.329731   1.000000
    3       -7.413240   1.000000
    4       -7.266987   1.000000
    5       -7.260425   1.000000
    6       -7.172067   1.000000
    7       -7.062550   1.000000
    8       -6.975767   1.000000
    9       -6.895934   1.000000
   10       -6.814921   1.000000
   11       -6.622506   1.000000
   12       -6.555714   1.000000
   13       -6.516800   1.000000
   14       -6.476028   1.000000
   15       -6.430417   1.000000
   16       -6.261338   1.000000
   17       -6.191506   1.000000
   18       -6.076074   1.000000
   19       -5.955590   1.000000
   20       -5.610108   1.000000