 vasp.5.4.4.18Apr17-6-g9f103f2a35 (build Apr 28 2017 10:53:45) complex          
  
 executed on             LinuxIFC date 2020.02.16  20:46:14
 running on   24 total cores
 distrk:  each k-point on   24 cores,    1 groups
 distr:  one band on NCORES_PER_BAND=   1 cores,   24 groups


--------------------------------------------------------------------------------------------------------


 INCAR:
 POTCAR:    PAW_PBE Ir 06Sep2000                  
 POTCAR:    PAW_PBE Pt 04Feb2005                  
 POTCAR:    PAW_PBE Au 04Oct2007                  

 ----------------------------------------------------------------------------- 
|                                                                             |
|           W    W    AA    RRRRR   N    N  II  N    N   GGGG   !!!           |
|           W    W   A  A   R    R  NN   N  II  NN   N  G    G  !!!           |
|           W    W  A    A  R    R  N N  N  II  N N  N  G       !!!           |
|           W WW W  AAAAAA  RRRRR   N  N N  II  N  N N  G  GGG   !            |
|           WW  WW  A    A  R   R   N   NN  II  N   NN  G    G                |
|           W    W  A    A  R    R  N    N  II  N    N   GGGG   !!!           |
|                                                                             |
|      For optimal performance we recommend to set                            |
|        NCORE= 4 - approx SQRT( number of cores)                             |
|      NCORE specifies how many cores store one orbital (NPAR=cpu/NCORE).     |
|      This setting can  greatly improve the performance of VASP for DFT.     |
|      The default,   NCORE=1            might be grossly inefficient         |
|      on modern multi-core architectures or massively parallel machines.     |
|      Do your own testing !!!!                                               |
|      Unfortunately you need to use the default for GW and RPA calculations. |
|      (for HF NCORE is supported but not extensively tested yet)             |
|                                                                             |
 ----------------------------------------------------------------------------- 

 POTCAR:    PAW_PBE Ir 06Sep2000                  
   SHA256 =  7c6af8d4d487b237782eb51e6f62977b27a1da78c3c96acd1cebefd6c308f120 Ir
   COPYR  = (c) Copyright 06Sep2000 Georg Kresse                                
   COPYR  = This file is part of the software VASP. Any use, copying, and all ot
   COPYR  = If you do not have a valid VASP license, you may not use, copy or di
   VRHFIN =Ir: s1d8                                                             
   LEXCH  = PE                                                                  
   EATOM  =   560.1833 eV,   41.1723 Ry                                         
                                                                                
   TITEL  = PAW_PBE Ir 06Sep2000                                                
   LULTRA =        F    use ultrasoft PP ?                                      
   IUNSCR =        1    unscreen: 0-lin 1-nonlin 2-no                           
   RPACOR =    2.250    partial core radius                                     
   POMASS =  192.220; ZVAL   =    9.000    mass and valenz                      
   RCORE  =    2.600    outmost cutoff radius                                   
   RWIGS  =    2.690; RWIGS  =    1.423    wigner-seitz radius (au A)           
   ENMAX  =  210.864; ENMIN  =  158.148 eV                                      
   RCLOC  =    1.857    cutoff for local pot                                    
   LCOR   =        T    correct aug charges                                     
   LPAW   =        T    paw PP                                                  
   EAUG   =  318.962                                                            
   DEXC   =    0.000                                                            
   RMAX   =    2.667    core radius for proj-oper                               
   RAUG   =    1.300    factor for augmentation sphere                          
   RDEP   =    2.748    radius for radial grids                                 
   RDEPT  =    2.300    core radius for aug-charge                              
                                                                                
   Atomic configuration                                                         
   16 entries                                                                   
     n  l   j            E        occ.                                          
     1  0  0.50    -76100.0449   2.0000                                         
     2  0  0.50    -13308.1683   2.0000                                         
     2  1  1.50    -11558.0021   6.0000                                         
     3  0  0.50     -3110.7274   2.0000                                         
     3  1  1.50     -2599.2109   6.0000                                         
     3  2  2.50     -2037.1515  10.0000                                         
     4  0  0.50      -661.6001   2.0000                                         
     4  1  1.50      -493.8981   6.0000                                         
     4  2  2.50      -288.1909  10.0000                                         
     4  3  3.50       -59.5718  14.0000                                         
     5  0  0.50       -95.3879   2.0000                                         
     5  1  1.50       -52.2747   6.0000                                         
     5  2  2.50        -5.4180   8.0000                                         
     6  0  0.50        -5.5479   1.0000                                         
     6  1  1.50        -6.8029   0.0000                                         
     5  3  2.50        -1.3606   0.0000                                         
   Description                                                                  
     l       E           TYP  RCUT    TYP  RCUT                                 
     2     -5.4179967     23  2.600                                             
     2     -6.7785793     23  2.600                                             
     0     -5.5478636     23  2.600                                             
     0      2.2542272     23  2.600                                             
     1     -2.7211652     23  2.600                                             
     1     20.4087390     23  2.600                                             
  local pseudopotential read in
  partial core-charges read in
  partial kinetic energy density read in
  atomic valenz-charges read in
  non local Contribution for L=           2  read in
    real space projection operators read in
  non local Contribution for L=           2  read in
    real space projection operators read in
  non local Contribution for L=           0  read in
    real space projection operators read in
  non local Contribution for L=           0  read in
    real space projection operators read in
  non local Contribution for L=           1  read in
    real space projection operators read in
  non local Contribution for L=           1  read in
    real space projection operators read in
    PAW grid and wavefunctions read in
 
   number of l-projection  operators is LMAX  =           6
   number of lm-projection operators is LMMAX =          18
 
 POTCAR:    PAW_PBE Pt 04Feb2005                  
   SHA256 =  3ed90460adef76debcff1cfb73ee1349b515b1a3db03439735b44de3a8db7dc8 Pt
   COPYR  = (c) Copyright 04Feb2005 Georg Kresse                                
   COPYR  = This file is part of the software VASP. Any use, copying, and all ot
   COPYR  = If you do not have a valid VASP license, you may not use, copy or di
   VRHFIN =Pt: s1d9                                                             
   LEXCH  = PE                                                                  
   EATOM  =   729.1176 eV,   53.5886 Ry                                         
                                                                                
   TITEL  = PAW_PBE Pt 04Feb2005                                                
   LULTRA =        F    use ultrasoft PP ?                                      
   IUNSCR =        1    unscreen: 0-lin 1-nonlin 2-no                           
   RPACOR =    2.330    partial core radius                                     
   POMASS =  195.080; ZVAL   =   10.000    mass and valenz                      
   RCORE  =    2.600    outmost cutoff radius                                   
   RWIGS  =    2.750; RWIGS  =    1.455    wigner-seitz radius (au A)           
   ENMAX  =  230.283; ENMIN  =  172.712 eV                                      
   ICORE  =        3    local potential                                         
   LCOR   =        T    correct aug charges                                     
   LPAW   =        T    paw PP                                                  
   EAUG   =  358.966                                                            
   DEXC   =    0.000                                                            
   RMAX   =    2.658    core radius for proj-oper                               
   RAUG   =    1.300    factor for augmentation sphere                          
   RDEP   =    2.761    radius for radial grids                                 
   RDEPT  =    2.203    core radius for aug-charge                              
                                                                                
   Atomic configuration                                                         
   16 entries                                                                   
     n  l   j            E        occ.                                          
     1  0  0.50    -78401.1885   2.0000                                         
     2  0  0.50    -13770.7750   2.0000                                         
     2  1  1.50    -11931.0468   6.0000                                         
     3  0  0.50     -3234.7234   2.0000                                         
     3  1  1.50     -2699.2216   6.0000                                         
     3  2  2.50     -2119.5714  10.0000                                         
     4  0  0.50      -695.1528   2.0000                                         
     4  1  1.50      -519.6034   6.0000                                         
     4  2  2.50      -306.6786  10.0000                                         
     4  3  3.50       -70.1041  14.0000                                         
     5  0  0.50      -101.7747   2.0000                                         
     5  1  1.50       -55.9873   6.0000                                         
     5  2  2.50        -6.1423   9.0000                                         
     6  0  0.50        -5.6573   1.0000                                         
     6  1  1.50        -6.8029   0.0000                                         
     5  3  2.50        -1.3606   0.0000                                         
   Description                                                                  
     l       E           TYP  RCUT    TYP  RCUT                                 
     2     -6.1423404     23  2.500                                             
     2     -7.5029230     23  2.500                                             
     0     -5.6573207     23  2.500                                             
     0      0.7416693     23  2.500                                             
     1     -2.7211652     23  2.600                                             
     1     20.4087390     23  2.600                                             
     3     -1.3605826     23  2.500                                             
  local pseudopotential read in
  partial core-charges read in
  partial kinetic energy density read in
  atomic valenz-charges read in
  non local Contribution for L=           2  read in
    real space projection operators read in
  non local Contribution for L=           2  read in
    real space projection operators read in
  non local Contribution for L=           0  read in
    real space projection operators read in
  non local Contribution for L=           0  read in
    real space projection operators read in
  non local Contribution for L=           1  read in
    real space projection operators read in
  non local Contribution for L=           1  read in
    real space projection operators read in
    PAW grid and wavefunctions read in
 
   number of l-projection  operators is LMAX  =           6
   number of lm-projection operators is LMMAX =          18
 
 POTCAR:    PAW_PBE Au 04Oct2007                  
   SHA256 =  d0044ae04e2bdce24051b198fc5c053d722a5bc6fe3c3b100514a13fc5d2db88 Au
   COPYR  = (c) Copyright 04Oct2007 Georg Kresse                                
   COPYR  = This file is part of the software VASP. Any use, copying, and all ot
   COPYR  = If you do not have a valid VASP license, you may not use, copy or di
   VRHFIN =Au: s1d10                                                            
   LEXCH  = PE                                                                  
   EATOM  =   926.0867 eV,   68.0654 Ry                                         
                                                                                
   TITEL  = PAW_PBE Au 04Oct2007                                                
   LULTRA =        F    use ultrasoft PP ?                                      
   IUNSCR =        1    unscreen: 0-lin 1-nonlin 2-no                           
   RPACOR =    2.330    partial core radius                                     
   POMASS =  196.966; ZVAL   =   11.000    mass and valenz                      
   RCORE  =    2.500    outmost cutoff radius                                   
   RWIGS  =    2.840; RWIGS  =    1.503    wigner-seitz radius (au A)           
   ENMAX  =  229.943; ENMIN  =  172.457 eV                                      
   ICORE  =        3    local potential                                         
   LCOR   =        T    correct aug charges                                     
   LPAW   =        T    paw PP                                                  
   EAUG   =  356.670                                                            
   DEXC   =    0.000                                                            
   RMAX   =    2.562    core radius for proj-oper                               
   RAUG   =    1.300    factor for augmentation sphere                          
   RDEP   =    2.598    radius for radial grids                                 
   RDEPT  =    2.193    core radius for aug-charge                              
                                                                                
   Atomic configuration                                                         
   16 entries                                                                   
     n  l   j            E        occ.                                          
     1  0  0.50    -80748.5001   2.0000                                         
     2  0  0.50    -14244.7466   2.0000                                         
     2  1  1.50    -12310.9591   6.0000                                         
     3  0  0.50     -3362.1768   2.0000                                         
     3  1  1.50     -2801.5463   6.0000                                         
     3  2  2.50     -2203.8206  10.0000                                         
     4  0  0.50      -729.8168   2.0000                                         
     4  1  1.50      -546.0527   6.0000                                         
     4  2  2.50      -325.7302  10.0000                                         
     4  3  3.50       -81.1472  14.0000                                         
     5  0  0.50      -108.3201   2.0000                                         
     5  1  1.50       -59.7479   6.0000                                         
     5  2  2.50        -6.8783  10.0000                                         
     6  0  0.50        -5.7602   1.0000                                         
     6  1  1.50        -6.8029   0.0000                                         
     5  3  2.50        -1.3606   0.0000                                         
   Description                                                                  
     l       E           TYP  RCUT    TYP  RCUT                                 
     2     -6.8782861     23  2.500                                             
     2     -8.2388687     23  2.500                                             
     0     -5.7601759     23  2.500                                             
     0     -0.8493231     23  2.500                                             
     1     -2.7211652     23  2.500                                             
     1     27.2116520     23  2.500                                             
     3     -1.3605826     23  2.500                                             
  local pseudopotential read in
  partial core-charges read in
  partial kinetic energy density read in
  atomic valenz-charges read in
  non local Contribution for L=           2  read in
    real space projection operators read in
  non local Contribution for L=           2  read in
    real space projection operators read in
  non local Contribution for L=           0  read in
    real space projection operators read in
  non local Contribution for L=           0  read in
    real space projection operators read in
  non local Contribution for L=           1  read in
    real space projection operators read in
  non local Contribution for L=           1  read in
    real space projection operators read in
    PAW grid and wavefunctions read in
 
   number of l-projection  operators is LMAX  =           6
   number of lm-projection operators is LMMAX =          18
 
  PAW_PBE Ir 06Sep2000                  :
 energy of atom  1       EATOM= -560.1833
 kinetic energy error for atom=    0.0056 (will be added to EATOM!!)
  PAW_PBE Pt 04Feb2005                  :
 energy of atom  2       EATOM= -729.1176
 kinetic energy error for atom=    0.0144 (will be added to EATOM!!)
  PAW_PBE Au 04Oct2007                  :
 energy of atom  3       EATOM= -926.0867
 kinetic energy error for atom=    0.0152 (will be added to EATOM!!)
 
 
 POSCAR: Ir Pt Au                                
  positions in cartesian coordinates
  No initial velocities read in
 exchange correlation table for  LEXCH =        8
   RHO(1)=    0.500       N(1)  =     2000
   RHO(2)=  100.500       N(2)  =     4000
 


--------------------------------------------------------------------------------------------------------


 ion  position               nearest neighbor table
   1  0.000  0.000  0.390-   3 2.78   3 2.78   4 2.78   4 2.78   2 2.78   2 2.78   5 2.82   6 2.82
                             7 2.82
   2  0.500  0.000  0.390-   4 2.78   3 2.78   4 2.78   3 2.78   1 2.78   1 2.78   6 2.82   5 2.82
                             8 2.82
   3  0.000  0.500  0.390-   1 2.78   1 2.78   2 2.78   2 2.78   4 2.78   4 2.78   7 2.82   5 2.82
                             8 2.82
   4  0.500  0.500  0.390-   2 2.78   1 2.78   2 2.78   1 2.78   3 2.78   3 2.78   8 2.82   7 2.82
                             6 2.82
   5  0.167  0.167  0.465-   7 2.78   7 2.78   8 2.78   8 2.78   6 2.78   6 2.78   9 2.80  12 2.80
                            10 2.80   1 2.82   3 2.82   2 2.82
   6  0.667  0.167  0.465-   8 2.78   7 2.78   8 2.78   7 2.78   5 2.78   5 2.78  10 2.80  11 2.80
                             9 2.80   2 2.82   4 2.82   1 2.82
   7  0.167  0.667  0.465-   5 2.78   5 2.78   6 2.78   6 2.78   8 2.78   8 2.78  10 2.80  11 2.80
                            12 2.80   3 2.82   4 2.82   1 2.82
   8  0.667  0.667  0.465-   6 2.78   5 2.78   6 2.78   5 2.78   7 2.78   7 2.78   9 2.80  12 2.80
                            11 2.80   4 2.82   2 2.82   3 2.82
   9  0.833  0.333  0.539-  11 2.78  11 2.78  12 2.78  12 2.78  10 2.78  10 2.78   5 2.80   8 2.80
                             6 2.80  14 2.83  16 2.83  15 2.83
  10  0.333  0.333  0.539-  12 2.78  11 2.78  12 2.78  11 2.78   9 2.78   9 2.78   6 2.80   7 2.80
                             5 2.80  15 2.83  13 2.83  14 2.83
  11  0.833  0.833  0.539-   9 2.78   9 2.78  10 2.78  10 2.78  12 2.78  12 2.78   6 2.80   7 2.80
                             8 2.80  16 2.83  14 2.83  13 2.83
  12  0.333  0.833  0.539-  10 2.78   9 2.78  10 2.78   9 2.78  11 2.78  11 2.78   5 2.80   8 2.80
                             7 2.80  13 2.83  15 2.83  16 2.83
  13  0.500  0.000  0.615-  15 2.78  14 2.78  15 2.78  14 2.78  16 2.78  16 2.78  12 2.83  10 2.83
                            11 2.83
  14  0.000  0.500  0.615-  16 2.78  13 2.78  16 2.78  13 2.78  15 2.78  15 2.78   9 2.83  11 2.83
                            10 2.83
  15  0.500  0.500  0.615-  13 2.78  13 2.78  16 2.78  16 2.78  14 2.78  14 2.78  10 2.83  12 2.83
                             9 2.83
  16  0.000  0.000  0.615-  14 2.78  14 2.78  15 2.78  15 2.78  13 2.78  13 2.78  11 2.83   9 2.83
                            12 2.83
 
  LATTYP: Found a hexagonal cell.
 ALAT       =     5.5578593001
 C/A-ratio  =     5.5429542221
  
  Lattice vectors:
  
 A1 = (   2.7789296501,  -4.8132473446,   0.0000000000)
 A2 = (  -5.5578593001,   0.0000000000,   0.0000000000)
 A3 = (   0.0000000000,   0.0000000000, -30.8069596737)


Analysis of symmetry for initial positions (statically):
=====================================================================
 Subroutine PRICEL returns:
 Original cell was already a primitive cell.
 

 Routine SETGRP: Setting up the symmetry group for a 
 hexagonal supercell.


 Subroutine GETGRP returns: Found  6 space group operations
 (whereof  6 operations were pure point group operations)
 out of a pool of 24 trial point group operations.


The static configuration has the point symmetry C_3v.


Analysis of symmetry for dynamics (positions and initial velocities):
=====================================================================
 Subroutine PRICEL returns:
 Original cell was already a primitive cell.
 

 Routine SETGRP: Setting up the symmetry group for a 
 hexagonal supercell.


 Subroutine GETGRP returns: Found  6 space group operations
 (whereof  6 operations were pure point group operations)
 out of a pool of 24 trial point group operations.


The dynamic configuration has the point symmetry C_3v.


Analysis of constrained symmetry for selective dynamics:
=====================================================================
 Subroutine PRICEL returns:
 Original cell was already a primitive cell.
 

 Routine SETGRP: Setting up the symmetry group for a 
 hexagonal supercell.


 Subroutine GETGRP returns: Found  6 space group operations
 (whereof  6 operations were pure point group operations)
 out of a pool of 24 trial point group operations.


The constrained configuration has the point symmetry C_3v.


 Subroutine INISYM returns: Found  6 space group operations
 (whereof  6 operations are pure point group operations),
 and found     1 'primitive' translations

 
 
 KPOINTS: KPOINTS created by Atomic Simulation Env

Automatic generation of k-mesh.
Space group operators:
 irot       det(A)        alpha          n_x          n_y          n_z        tau_x        tau_y        tau_z
    1     1.000000     0.000001     1.000000     0.000000     0.000000     0.000000     0.000000     0.000000
    2     1.000000   120.000000     0.000000     0.000000     1.000000     0.000000     0.000000     0.000000
    3     1.000000   120.000000     0.000000     0.000000    -1.000000     0.000000     0.000000     0.000000
    4    -1.000000   180.000000     0.500000    -0.866025     0.000000     0.000000     0.000000     0.000000
    5    -1.000000   180.000000     1.000000     0.000000     0.000000     0.000000     0.000000     0.000000
    6    -1.000000   180.000000    -0.500000    -0.866025     0.000000     0.000000     0.000000     0.000000
 
 Subroutine IBZKPT returns following result:
 ===========================================
 
 Found     20 irreducible k-points:
 
 Following reciprocal coordinates:
            Coordinates               Weight
  0.062500  0.062500  0.000000     48.000000
  0.187500  0.062500  0.000000     96.000000
  0.312500  0.062500  0.000000     96.000000
  0.437500  0.062500  0.000000     96.000000
 -0.437500  0.062500  0.000000     96.000000
 -0.312500  0.062500  0.000000     96.000000
 -0.187500  0.062500  0.000000     96.000000
 -0.062500  0.062500  0.000000     48.000000
  0.187500  0.187500  0.000000     48.000000
  0.312500  0.187500  0.000000     96.000000
  0.437500  0.187500  0.000000     96.000000
 -0.437500  0.187500  0.000000     96.000000
 -0.312500  0.187500  0.000000     96.000000
 -0.187500  0.187500  0.000000     48.000000
  0.312500  0.312500  0.000000     48.000000
  0.437500  0.312500  0.000000     96.000000
 -0.437500  0.312500  0.000000     96.000000
 -0.312500  0.312500  0.000000     48.000000
  0.437500  0.437500  0.000000     48.000000
 -0.437500  0.437500  0.000000     48.000000
 
 Following cartesian coordinates:
            Coordinates               Weight
  0.011245  0.006492  0.000000     48.000000
  0.033736 -0.006492  0.000000     96.000000
  0.056227 -0.019477  0.000000     96.000000
  0.078717 -0.032462  0.000000     96.000000
 -0.078717  0.058432  0.000000     96.000000
 -0.056227  0.045447  0.000000     96.000000
 -0.033736  0.032462  0.000000     96.000000
 -0.011245  0.019477  0.000000     48.000000
  0.033736  0.019477  0.000000     48.000000
  0.056227  0.006492  0.000000     96.000000
  0.078717 -0.006492  0.000000     96.000000
 -0.078717  0.084402  0.000000     96.000000
 -0.056227  0.071417  0.000000     96.000000
 -0.033736  0.058432  0.000000     48.000000
  0.056227  0.032462  0.000000     48.000000
  0.078717  0.019477  0.000000     96.000000
 -0.078717  0.110372  0.000000     96.000000
 -0.056227  0.097387  0.000000     48.000000
  0.078717  0.045447  0.000000     48.000000
 -0.078717  0.136342  0.000000     48.000000
 


--------------------------------------------------------------------------------------------------------




 Dimension of arrays:
   k-points           NKPTS =     20   k-points in BZ     NKDIM =     20   number of bands    NBANDS=     96
   number of dos      NEDOS =    301   number of ions     NIONS =     16
   non local maximal  LDIM  =      6   non local SUM 2l+1 LMDIM =     18
   total plane-waves  NPLWV = 112896
   max r-space proj   IRMAX =      1   max aug-charges    IRDMAX=  10104
   dimension x,y,z NGX =    28 NGY =   28 NGZ =  144
   dimension x,y,z NGXF=    56 NGYF=   56 NGZF=  288
   support grid    NGXF=    56 NGYF=   56 NGZF=  288
   ions per type =               1  14   1
   NGX,Y,Z   is equivalent  to a cutoff of   8.38,  8.38,  7.77 a.u.
   NGXF,Y,Z  is equivalent  to a cutoff of  16.75, 16.75, 15.54 a.u.

 SYSTEM =  unknown system                          
 POSCAR =  Ir Pt Au                                

 Startparameter for this run:
   NWRITE =      2    write-flag & timer
   PREC   = normal    normal or accurate (medium, high low for compatibility)
   ISTART =      0    job   : 0-new  1-cont  2-samecut
   ICHARG =      2    charge: 1-file 2-atom 10-const
   ISPIN  =      1    spin polarized calculation?
   LNONCOLLINEAR =      F non collinear calculations
   LSORBIT =      F    spin-orbit coupling
   INIWAV =      1    electr: 0-lowe 1-rand  2-diag
   LASPH  =      F    aspherical Exc in radial PAW
   METAGGA=      F    non-selfconsistent MetaGGA calc.

 Electronic Relaxation 1
   ENCUT  =  350.0 eV  25.72 Ry    5.07 a.u.   8.48  8.48 46.99*2*pi/ulx,y,z
   ENINI  =  350.0     initial cutoff
   ENAUG  =  359.0 eV  augmentation charge cutoff
   NELM   =     60;   NELMIN=  2; NELMDL= -5     # of ELM steps 
   EDIFF  = 0.1E-04   stopping-criterion for ELM
   LREAL  =      F    real-space projection
   NLSPLINE    = F    spline interpolate recip. space projectors
   LCOMPAT=      F    compatible to vasp.4.4
   GGA_COMPAT  = T    GGA compatible to vasp.4.4-vasp.4.6
   LMAXPAW     = -100 max onsite density
   LMAXMIX     =    2 max onsite mixed and CHGCAR
   VOSKOWN=      0    Vosko Wilk Nusair interpolation
   ROPT   =    0.00000   0.00000   0.00000
 Ionic relaxation
   EDIFFG = -.5E-01   stopping-criterion for IOM
   NSW    =      0    number of steps for IOM
   NBLOCK =      1;   KBLOCK =      1    inner block; outer block 
   IBRION =     -1    ionic relax: 0-MD 1-quasi-New 2-CG
   NFREE  =      1    steps in history (QN), initial steepest desc. (CG)
   ISIF   =      2    stress and relaxation
   IWAVPR =     10    prediction:  0-non 1-charg 2-wave 3-comb
   ISYM   =      2    0-nonsym 1-usesym 2-fastsym
   LCORR  =      T    Harris-Foulkes like correction to forces

   POTIM  = 0.5000    time-step for ionic-motion
   TEIN   =    0.0    initial temperature
   TEBEG  =    0.0;   TEEND  =   0.0 temperature during run
   SMASS  =  -3.00    Nose mass-parameter (am)
   estimated Nose-frequenzy (Omega)   =  0.10E-29 period in steps =****** mass=  -0.706E-27a.u.
   SCALEE = 1.0000    scale energy and forces
   NPACO  =    256;   APACO  = 16.0  distance and # of slots for P.C.
   PSTRESS=    0.0 pullay stress

  Mass of Ions in am
   POMASS = 192.22195.08196.97
  Ionic Valenz
   ZVAL   =   9.00 10.00 11.00
  Atomic Wigner-Seitz radii
   RWIGS  =  -1.00 -1.00 -1.00
  virtual crystal weights 
   VCA    =   1.00  1.00  1.00
   NELECT =     160.0000    total number of electrons
   NUPDOWN=      -1.0000    fix difference up-down

 DOS related values:
   EMIN   =  10.00;   EMAX   =-10.00  energy-range for DOS
   EFERMI =   0.00
   ISMEAR =     1;   SIGMA  =   0.20  broadening in eV -4-tet -1-fermi 0-gaus

 Electronic relaxation 2 (details)
   IALGO  =     38    algorithm
   LDIAG  =      T    sub-space diagonalisation (order eigenvalues)
   LSUBROT=      F    optimize rotation matrix (better conditioning)
   TURBO    =      0    0=normal 1=particle mesh
   IRESTART =      0    0=no restart 2=restart with 2 vectors
   NREBOOT  =      0    no. of reboots
   NMIN     =      0    reboot dimension
   EREF     =   0.00    reference energy to select bands
   IMIX   =      4    mixing-type and parameters
     AMIX     =   0.40;   BMIX     =  1.00
     AMIX_MAG =   1.60;   BMIX_MAG =  1.00
     AMIN     =   0.10
     WC   =   100.;   INIMIX=   1;  MIXPRE=   1;  MAXMIX= -45

 Intra band minimization:
   WEIMIN = 0.0000     energy-eigenvalue tresh-hold
   EBREAK =  0.26E-07  absolut break condition
   DEPER  =   0.30     relativ break condition  

   TIME   =   0.40     timestep for ELM

  volume/ion in A,a.u.               =      51.51       347.59
  Fermi-wavevector in a.u.,A,eV,Ry     =   0.947945  1.791357 12.226201  0.898600
  Thomas-Fermi vector in A             =   2.076087
 
 Write flags
   LWAVE        =      F    write WAVECAR
   LDOWNSAMPLE  =      F    k-point downsampling of WAVECAR
   LCHARG       =      F    write CHGCAR
   LVTOT        =      F    write LOCPOT, total local potential
   LVHAR        =      F    write LOCPOT, Hartree potential only
   LELF         =      F    write electronic localiz. function (ELF)
   LORBIT       =      0    0 simple, 1 ext, 2 COOP (PROOUT), +10 PAW based schemes


 Dipole corrections
   LMONO  =      F    monopole corrections only (constant potential shift)
   LDIPOL =      F    correct potential (dipole corrections)
   IDIPOL =      3    1-x, 2-y, 3-z, 4-all directions 
   EPSILON=  1.0000000 bulk dielectric constant

 Exchange correlation treatment:
   GGA     =    PE    GGA type
   LEXCH   =     8    internal setting for exchange type
   VOSKOWN=      0    Vosko Wilk Nusair interpolation
   LHFCALC =     F    Hartree Fock is set to
   LHFONE  =     F    Hartree Fock one center treatment
   AEXX    =    0.0000 exact exchange contribution

 Linear response parameters
   LEPSILON=     F    determine dielectric tensor
   LRPA    =     F    only Hartree local field effects (RPA)
   LNABLA  =     F    use nabla operator in PAW spheres
   LVEL    =     F    velocity operator in full k-point grid
   LINTERFAST=   F  fast interpolation
   KINTER  =     0    interpolate to denser k-point grid
   CSHIFT  =0.1000    complex shift for real part using Kramers Kronig
   OMEGAMAX=  -1.0    maximum frequency
   DEG_THRESHOLD= 0.2000000E-02 threshold for treating states as degnerate
   RTIME   =   -0.100 relaxation time in fs
  (WPLASMAI=    0.000 imaginary part of plasma frequency in eV, 0.658/RTIME)
   DFIELD  = 0.0000000 0.0000000 0.0000000 field for delta impulse in time
 
 Orbital magnetization related:
   ORBITALMAG=     F  switch on orbital magnetization
   LCHIMAG   =     F  perturbation theory with respect to B field
   DQ        =  0.001000  dq finite difference perturbation B field
   LLRAUG    =     F  two centre corrections for induced B field



--------------------------------------------------------------------------------------------------------


 Static calculation
 charge density and potential will be updated during run
 non-spin polarized calculation
 Variant of blocked Davidson
 Davidson routine will perform the subspace rotation
 perform sub-space diagonalisation
    after iterative eigenvector-optimisation
 modified Broyden-mixing scheme, WC =      100.0
 initial mixing is a Kerker type mixing with AMIX =  0.4000 and BMIX =      1.0000
 Hartree-type preconditioning will be used
 using additional bands           16
 reciprocal scheme for non local part
 use partial core corrections
 calculate Harris-corrections to forces 
   (improved forces if not selfconsistent)
 use gradient corrections 
 use of overlap-Matrix (Vanderbilt PP)
 Methfessel and Paxton  Order N= 1 SIGMA  =   0.20


--------------------------------------------------------------------------------------------------------


  energy-cutoff  :      350.00
  volume of cell :      824.13
      direct lattice vectors                 reciprocal lattice vectors
     5.557859300  0.000000000  0.000000000     0.179925390 -0.103879972  0.000000000
     2.778929650  4.813247345  0.000000000     0.000000000  0.207759944  0.000000000
     0.000000000  0.000000000 30.806959674     0.000000000  0.000000000  0.032460198

  length of vectors
     5.557859300  5.557859300 30.806959674     0.207759944  0.207759944  0.032460198


 
 k-points in units of 2pi/SCALE and weight: KPOINTS created by Atomic Simulation Env
   0.01124534  0.00649250  0.00000000       0.031
   0.03373601 -0.00649250  0.00000000       0.062
   0.05622668 -0.01947749  0.00000000       0.062
   0.07871736 -0.03246249  0.00000000       0.062
  -0.07871736  0.05843248  0.00000000       0.062
  -0.05622668  0.04544749  0.00000000       0.062
  -0.03373601  0.03246249  0.00000000       0.062
  -0.01124534  0.01947749  0.00000000       0.031
   0.03373601  0.01947749  0.00000000       0.031
   0.05622668  0.00649250  0.00000000       0.062
   0.07871736 -0.00649250  0.00000000       0.062
  -0.07871736  0.08440248  0.00000000       0.062
  -0.05622668  0.07141748  0.00000000       0.062
  -0.03373601  0.05843248  0.00000000       0.031
   0.05622668  0.03246249  0.00000000       0.031
   0.07871736  0.01947749  0.00000000       0.062
  -0.07871736  0.11037247  0.00000000       0.062
  -0.05622668  0.09738747  0.00000000       0.031
   0.07871736  0.04544749  0.00000000       0.031
  -0.07871736  0.13634246  0.00000000       0.031
 
 k-points in reciprocal lattice and weights: KPOINTS created by Atomic Simulation Env
   0.06250000  0.06250000  0.00000000       0.031
   0.18750000  0.06250000  0.00000000       0.062
   0.31250000  0.06250000  0.00000000       0.062
   0.43750000  0.06250000  0.00000000       0.062
  -0.43750000  0.06250000  0.00000000       0.062
  -0.31250000  0.06250000  0.00000000       0.062
  -0.18750000  0.06250000  0.00000000       0.062
  -0.06250000  0.06250000  0.00000000       0.031
   0.18750000  0.18750000  0.00000000       0.031
   0.31250000  0.18750000  0.00000000       0.062
   0.43750000  0.18750000  0.00000000       0.062
  -0.43750000  0.18750000  0.00000000       0.062
  -0.31250000  0.18750000  0.00000000       0.062
  -0.18750000  0.18750000  0.00000000       0.031
   0.31250000  0.31250000  0.00000000       0.031
   0.43750000  0.31250000  0.00000000       0.062
  -0.43750000  0.31250000  0.00000000       0.062
  -0.31250000  0.31250000  0.00000000       0.031
   0.43750000  0.43750000  0.00000000       0.031
  -0.43750000  0.43750000  0.00000000       0.031
 
 position of ions in fractional coordinates (direct lattice) 
   0.00000000  0.00000000  0.38952237
   0.50000000  0.00000000  0.38952237
   0.00000000  0.50000000  0.38952237
   0.50000000  0.50000000  0.38952237
   0.16666667  0.16666667  0.46468540
   0.66666667  0.16666667  0.46468540
   0.16666667  0.66666667  0.46468540
   0.66666667  0.66666667  0.46468540
   0.83333333  0.33333333  0.53920296
   0.33333333  0.33333333  0.53920296
   0.83333333  0.83333333  0.53920296
   0.33333333  0.83333333  0.53920296
   0.50000000  0.00000000  0.61486043
   0.00000000  0.50000000  0.61486043
   0.50000000  0.50000000  0.61486043
   0.00000000  0.00000000  0.61486043
 
 position of ions in cartesian coordinates  (Angst):
   0.00000000  0.00000000 12.00000000
   2.77892965  0.00000000 12.00000000
   1.38946483  2.40662367 12.00000000
   4.16839448  2.40662367 12.00000000
   1.38946483  0.80220789 14.31554441
   4.16839448  0.80220789 14.31554441
   2.77892965  3.20883156 14.31554441
   5.55785930  3.20883156 14.31554441
   5.55785930  1.60441578 16.61120399
   2.77892965  1.60441578 16.61120399
   6.94732413  4.01103945 16.61120399
   4.16839448  4.01103945 16.61120399
   2.77892965  0.00000000 18.94198048
   1.38946483  2.40662367 18.94198048
   4.16839448  2.40662367 18.94198048
   0.00000000  0.00000000 18.94198048
 


--------------------------------------------------------------------------------------------------------


 k-point  1 :   0.0625 0.0625 0.0000  plane waves:   12325
 k-point  2 :   0.1875 0.0625 0.0000  plane waves:   12294
 k-point  3 :   0.3125 0.0625 0.0000  plane waves:   12263
 k-point  4 :   0.4375 0.0625 0.0000  plane waves:   12221
 k-point  5 :  -0.4375 0.0625 0.0000  plane waves:   12211
 k-point  6 :  -0.3125 0.0625 0.0000  plane waves:   12242
 k-point  7 :  -0.1875 0.0625 0.0000  plane waves:   12280
 k-point  8 :  -0.0625 0.0625 0.0000  plane waves:   12329
 k-point  9 :   0.1875 0.1875 0.0000  plane waves:   12277
 k-point 10 :   0.3125 0.1875 0.0000  plane waves:   12288
 k-point 11 :   0.4375 0.1875 0.0000  plane waves:   12234
 k-point 12 :  -0.4375 0.1875 0.0000  plane waves:   12216
 k-point 13 :  -0.3125 0.1875 0.0000  plane waves:   12215
 k-point 14 :  -0.1875 0.1875 0.0000  plane waves:   12289
 k-point 15 :   0.3125 0.3125 0.0000  plane waves:   12275
 k-point 16 :   0.4375 0.3125 0.0000  plane waves:   12239
 k-point 17 :  -0.4375 0.3125 0.0000  plane waves:   12235
 k-point 18 :  -0.3125 0.3125 0.0000  plane waves:   12232
 k-point 19 :   0.4375 0.4375 0.0000  plane waves:   12200
 k-point 20 :  -0.4375 0.4375 0.0000  plane waves:   12214

 maximum and minimum number of plane-waves per node :     12329    12200

 maximum number of plane-waves:     12329
 maximum index in each direction: 
   IXMAX=    8   IYMAX=    8   IZMAX=   46
   IXMIN=   -8   IYMIN=   -8   IZMIN=  -46


 serial   3D FFT for wavefunctions
 parallel 3D FFT for charge:
    minimum data exchange during FFTs selected (reduces bandwidth)


 total amount of memory used by VASP MPI-rank0   165803. kBytes
=======================================================================

   base      :      30000. kBytes
   nonl-proj :     109741. kBytes
   fftplans  :       2015. kBytes
   grid      :       7641. kBytes
   one-center:        248. kBytes
   wavefun   :      16158. kBytes
 
     INWAV:  cpu time    0.0000: real time    0.0000
 Broyden mixing: mesh for mixing (old mesh)
   NGX = 17   NGY = 17   NGZ = 93
  (NGX  = 56   NGY  = 56   NGZ  =288)
  gives a total of  26877 points

 initial charge density was supplied:
 charge density of overlapping atoms calculated
 number of electron     160.0000000 magnetization 
 keeping initial charge density in first step


--------------------------------------------------------------------------------------------------------


 Maximum index for augmentation-charges          824 (set IRDMAX)


--------------------------------------------------------------------------------------------------------


 First call to EWALD:  gamma=   0.189
 Maximum number of real-space cells 5x 5x 1
 Maximum number of reciprocal cells 2x 2x 8

    FEWALD:  cpu time    0.0015: real time    0.0015


--------------------------------------- Iteration      1(   1)  ---------------------------------------


    POTLOK:  cpu time    0.0192: real time    0.0256
    SETDIJ:  cpu time    0.0025: real time    0.0025
     EDDAV:  cpu time    3.5025: real time    3.5045
       DOS:  cpu time    0.0013: real time    0.0013
    --------------------------------------------
      LOOP:  cpu time    3.5255: real time    3.5339

 eigenvalue-minimisations  :  3840
 total energy-change (2. order) : 0.9756261E+03  (-0.5549862E+04)
 number of electron     160.0000000 magnetization 
 augmentation part      160.0000000 magnetization 

 Free energy of the ion-electron system (eV)
  ---------------------------------------------------
  alpha Z        PSCENC =       303.52543553
  Ewald energy   TEWEN  =     98433.55813087
  -Hartree energ DENC   =   -110505.04860775
  -exchange      EXHF   =         0.00000000
  -V(xc)+E(xc)   XCENC  =        46.26589294
  PAW double counting   =     11171.21661038   -10711.84633960
  entropy T*S    EENTRO =        -0.01329833
  eigenvalues    EBANDS =       544.27403132
  atomic energy  EATOM  =     11693.69420960
  Solvation  Ediel_sol  =         0.00000000
  ---------------------------------------------------
  free energy    TOTEN  =       975.62606497 eV

  energy without entropy =      975.63936330  energy(sigma->0) =      975.63049774


--------------------------------------------------------------------------------------------------------




--------------------------------------- Iteration      1(   2)  ---------------------------------------


     EDDAV:  cpu time    4.9083: real time    4.9094
       DOS:  cpu time    0.0017: real time    0.0017
    --------------------------------------------
      LOOP:  cpu time    4.9100: real time    4.9111

 eigenvalue-minimisations  :  5544
 total energy-change (2. order) :-0.1013984E+04  (-0.9818937E+03)
 number of electron     160.0000000 magnetization 
 augmentation part      160.0000000 magnetization 

 Free energy of the ion-electron system (eV)
  ---------------------------------------------------
  alpha Z        PSCENC =       303.52543553
  Ewald energy   TEWEN  =     98433.55813087
  -Hartree energ DENC   =   -110505.04860775
  -exchange      EXHF   =         0.00000000
  -V(xc)+E(xc)   XCENC  =        46.26589294
  PAW double counting   =     11171.21661038   -10711.84633960
  entropy T*S    EENTRO =        -0.00600207
  eigenvalues    EBANDS =      -469.71692277
  atomic energy  EATOM  =     11693.69420960
  Solvation  Ediel_sol  =         0.00000000
  ---------------------------------------------------
  free energy    TOTEN  =       -38.35759287 eV

  energy without entropy =      -38.35159079  energy(sigma->0) =      -38.35559218


--------------------------------------------------------------------------------------------------------




--------------------------------------- Iteration      1(   3)  ---------------------------------------


     EDDAV:  cpu time    4.2914: real time    4.2919
       DOS:  cpu time    0.0011: real time    0.0011
    --------------------------------------------
      LOOP:  cpu time    4.2926: real time    4.2930

 eigenvalue-minimisations  :  4800
 total energy-change (2. order) :-0.5862059E+02  (-0.5670116E+02)
 number of electron     160.0000000 magnetization 
 augmentation part      160.0000000 magnetization 

 Free energy of the ion-electron system (eV)
  ---------------------------------------------------
  alpha Z        PSCENC =       303.52543553
  Ewald energy   TEWEN  =     98433.55813087
  -Hartree energ DENC   =   -110505.04860775
  -exchange      EXHF   =         0.00000000
  -V(xc)+E(xc)   XCENC  =        46.26589294
  PAW double counting   =     11171.21661038   -10711.84633960
  entropy T*S    EENTRO =        -0.02437915
  eigenvalues    EBANDS =      -528.31913916
  atomic energy  EATOM  =     11693.69420960
  Solvation  Ediel_sol  =         0.00000000
  ---------------------------------------------------
  free energy    TOTEN  =       -96.97818633 eV

  energy without entropy =      -96.95380719  energy(sigma->0) =      -96.97005995


--------------------------------------------------------------------------------------------------------




--------------------------------------- Iteration      1(   4)  ---------------------------------------


     EDDAV:  cpu time    4.6917: real time    4.6923
       DOS:  cpu time    0.0010: real time    0.0010
    --------------------------------------------
      LOOP:  cpu time    4.6927: real time    4.6933

 eigenvalue-minimisations  :  5352
 total energy-change (2. order) :-0.1267308E+01  (-0.1259807E+01)
 number of electron     160.0000000 magnetization 
 augmentation part      160.0000000 magnetization 

 Free energy of the ion-electron system (eV)
  ---------------------------------------------------
  alpha Z        PSCENC =       303.52543553
  Ewald energy   TEWEN  =     98433.55813087
  -Hartree energ DENC   =   -110505.04860775
  -exchange      EXHF   =         0.00000000
  -V(xc)+E(xc)   XCENC  =        46.26589294
  PAW double counting   =     11171.21661038   -10711.84633960
  entropy T*S    EENTRO =        -0.02672603
  eigenvalues    EBANDS =      -529.58409988
  atomic energy  EATOM  =     11693.69420960
  Solvation  Ediel_sol  =         0.00000000
  ---------------------------------------------------
  free energy    TOTEN  =       -98.24549394 eV

  energy without entropy =      -98.21876791  energy(sigma->0) =      -98.23658526


--------------------------------------------------------------------------------------------------------




--------------------------------------- Iteration      1(   5)  ---------------------------------------


     EDDAV:  cpu time    5.0468: real time    5.0477
       DOS:  cpu time    0.0008: real time    0.0008
    CHARGE:  cpu time    0.1316: real time    0.1317
    MIXING:  cpu time    0.0010: real time    0.0011
    --------------------------------------------
      LOOP:  cpu time    5.1802: real time    5.1812

 eigenvalue-minimisations  :  5760
 total energy-change (2. order) :-0.3350486E-01  (-0.3349770E-01)
 number of electron     160.0000092 magnetization 
 augmentation part       46.9856133 magnetization 

 Broyden mixing:
  rms(total) = 0.41715E+01    rms(broyden)= 0.41714E+01
  rms(prec ) = 0.42006E+01
  weight for this iteration     100.00

 Free energy of the ion-electron system (eV)
  ---------------------------------------------------
  alpha Z        PSCENC =       303.52543553
  Ewald energy   TEWEN  =     98433.55813087
  -Hartree energ DENC   =   -110505.04860775
  -exchange      EXHF   =         0.00000000
  -V(xc)+E(xc)   XCENC  =        46.26589294
  PAW double counting   =     11171.21661038   -10711.84633960
  entropy T*S    EENTRO =        -0.02675814
  eigenvalues    EBANDS =      -529.61757263
  atomic energy  EATOM  =     11693.69420960
  Solvation  Ediel_sol  =         0.00000000
  ---------------------------------------------------
  free energy    TOTEN  =       -98.27899880 eV

  energy without entropy =      -98.25224066  energy(sigma->0) =      -98.27007942


--------------------------------------------------------------------------------------------------------




--------------------------------------- Iteration      1(   6)  ---------------------------------------


    POTLOK:  cpu time    0.0169: real time    0.0170
    SETDIJ:  cpu time    0.0023: real time    0.0023
     EDDAV:  cpu time    4.0071: real time    4.0077
       DOS:  cpu time    0.0010: real time    0.0010
    CHARGE:  cpu time    0.1312: real time    0.1313
    MIXING:  cpu time    0.0009: real time    0.0009
    --------------------------------------------
      LOOP:  cpu time    4.1593: real time    4.1601

 eigenvalue-minimisations  :  4536
 total energy-change (2. order) : 0.4049582E+01  (-0.2836926E+01)
 number of electron     160.0000089 magnetization 
 augmentation part       49.5513811 magnetization 

 Broyden mixing:
  rms(total) = 0.29927E+01    rms(broyden)= 0.29927E+01
  rms(prec ) = 0.30738E+01
  weight for this iteration     100.00

 eigenvalues of (default mixing * dielectric matrix)
  average eigenvalue GAMMA=   1.3481
  1.3481

 Free energy of the ion-electron system (eV)
  ---------------------------------------------------
  alpha Z        PSCENC =       303.52543553
  Ewald energy   TEWEN  =     98433.55813087
  -Hartree energ DENC   =   -110317.04539858
  -exchange      EXHF   =         0.00000000
  -V(xc)+E(xc)   XCENC  =        42.09276360
  PAW double counting   =     12325.17161129   -11889.04580905
  entropy T*S    EENTRO =        -0.01601925
  eigenvalues    EBANDS =      -686.16434050
  atomic energy  EATOM  =     11693.69420960
  Solvation  Ediel_sol  =         0.00000000
  ---------------------------------------------------
  free energy    TOTEN  =       -94.22941651 eV

  energy without entropy =      -94.21339725  energy(sigma->0) =      -94.22407676


--------------------------------------------------------------------------------------------------------




--------------------------------------- Iteration      1(   7)  ---------------------------------------


    POTLOK:  cpu time    0.0164: real time    0.0243
    SETDIJ:  cpu time    0.0021: real time    0.0021
     EDDAV:  cpu time    4.2785: real time    4.2792
       DOS:  cpu time    0.0008: real time    0.0008
    CHARGE:  cpu time    0.1320: real time    0.1320
    MIXING:  cpu time    0.0006: real time    0.0006
    --------------------------------------------
      LOOP:  cpu time    4.4303: real time    4.4389

 eigenvalue-minimisations  :  4872
 total energy-change (2. order) :-0.2436612E+02  (-0.1618215E+02)
 number of electron     160.0000108 magnetization 
 augmentation part       48.8055441 magnetization 

 Broyden mixing:
  rms(total) = 0.44737E+01    rms(broyden)= 0.44736E+01
  rms(prec ) = 0.49442E+01
  weight for this iteration     100.00

 eigenvalues of (default mixing * dielectric matrix)
  average eigenvalue GAMMA=   1.1833
  2.1072  0.2595

 Free energy of the ion-electron system (eV)
  ---------------------------------------------------
  alpha Z        PSCENC =       303.52543553
  Ewald energy   TEWEN  =     98433.55813087
  -Hartree energ DENC   =   -110489.41047498
  -exchange      EXHF   =         0.00000000
  -V(xc)+E(xc)   XCENC  =        40.91056573
  PAW double counting   =     13243.83701501   -12818.52368025
  entropy T*S    EENTRO =         0.00247046
  eigenvalues    EBANDS =      -526.18921020
  atomic energy  EATOM  =     11693.69420960
  Solvation  Ediel_sol  =         0.00000000
  ---------------------------------------------------
  free energy    TOTEN  =      -118.59553823 eV

  energy without entropy =     -118.59800868  energy(sigma->0) =     -118.59636171


--------------------------------------------------------------------------------------------------------




--------------------------------------- Iteration      1(   8)  ---------------------------------------


    POTLOK:  cpu time    0.0161: real time    0.0161
    SETDIJ:  cpu time    0.0021: real time    0.0021
     EDDAV:  cpu time    4.9994: real time    5.0000
       DOS:  cpu time    0.0010: real time    0.0010
    CHARGE:  cpu time    0.1321: real time    0.1321
    MIXING:  cpu time    0.0006: real time    0.0006
    --------------------------------------------
      LOOP:  cpu time    5.1512: real time    5.1519

 eigenvalue-minimisations  :  5808
 total energy-change (2. order) : 0.2402999E+02  (-0.5916070E+01)
 number of electron     160.0000104 magnetization 
 augmentation part       50.4107052 magnetization 

 Broyden mixing:
  rms(total) = 0.14199E+01    rms(broyden)= 0.14198E+01
  rms(prec ) = 0.15791E+01
  weight for this iteration     100.00

 eigenvalues of (default mixing * dielectric matrix)
  average eigenvalue GAMMA=   1.0126
  2.0971  0.6310  0.3097

 Free energy of the ion-electron system (eV)
  ---------------------------------------------------
  alpha Z        PSCENC =       303.52543553
  Ewald energy   TEWEN  =     98433.55813087
  -Hartree energ DENC   =   -110321.29279734
  -exchange      EXHF   =         0.00000000
  -V(xc)+E(xc)   XCENC  =        39.93720332
  PAW double counting   =     14056.08051980   -13641.64983831
  entropy T*S    EENTRO =        -0.01909536
  eigenvalues    EBANDS =      -658.39931626
  atomic energy  EATOM  =     11693.69420960
  Solvation  Ediel_sol  =         0.00000000
  ---------------------------------------------------
  free energy    TOTEN  =       -94.56554815 eV

  energy without entropy =      -94.54645279  energy(sigma->0) =      -94.55918303


--------------------------------------------------------------------------------------------------------




--------------------------------------- Iteration      1(   9)  ---------------------------------------


    POTLOK:  cpu time    0.0164: real time    0.0164
    SETDIJ:  cpu time    0.0023: real time    0.0023
     EDDAV:  cpu time    4.2257: real time    4.2262
       DOS:  cpu time    0.0008: real time    0.0008
    CHARGE:  cpu time    0.1346: real time    0.1346
    MIXING:  cpu time    0.0007: real time    0.0007
    --------------------------------------------
      LOOP:  cpu time    4.3805: real time    4.3811

 eigenvalue-minimisations  :  4824
 total energy-change (2. order) :-0.4980818E+01  (-0.4730017E+01)
 number of electron     160.0000086 magnetization 
 augmentation part       50.3002061 magnetization 

 Broyden mixing:
  rms(total) = 0.25895E+01    rms(broyden)= 0.25894E+01
  rms(prec ) = 0.34485E+01
  weight for this iteration     100.00

 eigenvalues of (default mixing * dielectric matrix)
  average eigenvalue GAMMA=   0.8793
  2.1016  0.9400  0.2843  0.1915

 Free energy of the ion-electron system (eV)
  ---------------------------------------------------
  alpha Z        PSCENC =       303.52543553
  Ewald energy   TEWEN  =     98433.55813087
  -Hartree energ DENC   =   -110326.90903897
  -exchange      EXHF   =         0.00000000
  -V(xc)+E(xc)   XCENC  =        40.37496348
  PAW double counting   =     14190.40045588   -13775.20708978
  entropy T*S    EENTRO =        -0.00137427
  eigenvalues    EBANDS =      -658.98205826
  atomic energy  EATOM  =     11693.69420960
  Solvation  Ediel_sol  =         0.00000000
  ---------------------------------------------------
  free energy    TOTEN  =       -99.54636592 eV

  energy without entropy =      -99.54499165  energy(sigma->0) =      -99.54590783


--------------------------------------------------------------------------------------------------------




--------------------------------------- Iteration      1(  10)  ---------------------------------------


    POTLOK:  cpu time    0.0176: real time    0.0182
    SETDIJ:  cpu time    0.0023: real time    0.0023
     EDDAV:  cpu time    5.0013: real time    5.0020
       DOS:  cpu time    0.0008: real time    0.0008
    CHARGE:  cpu time    0.1319: real time    0.1319
    MIXING:  cpu time    0.0008: real time    0.0008
    --------------------------------------------
      LOOP:  cpu time    5.1547: real time    5.1560

 eigenvalue-minimisations  :  5760
 total energy-change (2. order) : 0.2129283E+01  (-0.9113287E+01)
 number of electron     160.0000094 magnetization 
 augmentation part       50.0544626 magnetization 

 Broyden mixing:
  rms(total) = 0.20315E+01    rms(broyden)= 0.20313E+01
  rms(prec ) = 0.26266E+01
  weight for this iteration     100.00

 eigenvalues of (default mixing * dielectric matrix)
  average eigenvalue GAMMA=   0.7799
  2.1686  1.0504  0.2939  0.2939  0.0929

 Free energy of the ion-electron system (eV)
  ---------------------------------------------------
  alpha Z        PSCENC =       303.52543553
  Ewald energy   TEWEN  =     98433.55813087
  -Hartree energ DENC   =   -110326.48172204
  -exchange      EXHF   =         0.00000000
  -V(xc)+E(xc)   XCENC  =        40.42807890
  PAW double counting   =     14264.44850438   -13849.19684812
  entropy T*S    EENTRO =         0.03797179
  eigenvalues    EBANDS =      -657.43084397
  atomic energy  EATOM  =     11693.69420960
  Solvation  Ediel_sol  =         0.00000000
  ---------------------------------------------------
  free energy    TOTEN  =       -97.41708305 eV

  energy without entropy =      -97.45505485  energy(sigma->0) =      -97.42974032


--------------------------------------------------------------------------------------------------------




--------------------------------------- Iteration      1(  11)  ---------------------------------------


    POTLOK:  cpu time    0.0164: real time    0.0173
    SETDIJ:  cpu time    0.0021: real time    0.0021
     EDDAV:  cpu time    4.2097: real time    4.2102
       DOS:  cpu time    0.0008: real time    0.0008
    CHARGE:  cpu time    0.1321: real time    0.1321
    MIXING:  cpu time    0.0007: real time    0.0007
    --------------------------------------------
      LOOP:  cpu time    4.3619: real time    4.3632

 eigenvalue-minimisations  :  4776
 total energy-change (2. order) : 0.4817037E+01  (-0.1213880E+01)
 number of electron     160.0000097 magnetization 
 augmentation part       50.1188240 magnetization 

 Broyden mixing:
  rms(total) = 0.76474E+00    rms(broyden)= 0.76466E+00
  rms(prec ) = 0.10021E+01
  weight for this iteration     100.00

 eigenvalues of (default mixing * dielectric matrix)
  average eigenvalue GAMMA=   0.7118
  2.1214  1.0217  0.3839  0.3165  0.3165  0.1108

 Free energy of the ion-electron system (eV)
  ---------------------------------------------------
  alpha Z        PSCENC =       303.52543553
  Ewald energy   TEWEN  =     98433.55813087
  -Hartree energ DENC   =   -110333.63244404
  -exchange      EXHF   =         0.00000000
  -V(xc)+E(xc)   XCENC  =        40.42107510
  PAW double counting   =     14350.55388505   -13935.74569201
  entropy T*S    EENTRO =        -0.02590513
  eigenvalues    EBANDS =      -644.94874143
  atomic energy  EATOM  =     11693.69420960
  Solvation  Ediel_sol  =         0.00000000
  ---------------------------------------------------
  free energy    TOTEN  =       -92.60004647 eV

  energy without entropy =      -92.57414134  energy(sigma->0) =      -92.59141143


--------------------------------------------------------------------------------------------------------




--------------------------------------- Iteration      1(  12)  ---------------------------------------


    POTLOK:  cpu time    0.0162: real time    0.0164
    SETDIJ:  cpu time    0.0021: real time    0.0021
     EDDAV:  cpu time    4.8751: real time    4.8758
       DOS:  cpu time    0.0010: real time    0.0010
    CHARGE:  cpu time    0.1316: real time    0.1316
    MIXING:  cpu time    0.0008: real time    0.0008
    --------------------------------------------
      LOOP:  cpu time    5.0268: real time    5.0277

 eigenvalue-minimisations  :  5616
 total energy-change (2. order) : 0.3715997E+00  (-0.3148848E+00)
 number of electron     160.0000096 magnetization 
 augmentation part       50.0862229 magnetization 

 Broyden mixing:
  rms(total) = 0.42127E+00    rms(broyden)= 0.42122E+00
  rms(prec ) = 0.50027E+00
  weight for this iteration     100.00

 eigenvalues of (default mixing * dielectric matrix)
  average eigenvalue GAMMA=   0.6662
  2.0627  1.0463  0.4472  0.4472  0.2758  0.2758  0.1084

 Free energy of the ion-electron system (eV)
  ---------------------------------------------------
  alpha Z        PSCENC =       303.52543553
  Ewald energy   TEWEN  =     98433.55813087
  -Hartree energ DENC   =   -110330.49308916
  -exchange      EXHF   =         0.00000000
  -V(xc)+E(xc)   XCENC  =        40.50479301
  PAW double counting   =     14330.18593606   -13915.17840167
  entropy T*S    EENTRO =        -0.05641154
  eigenvalues    EBANDS =      -647.96904947
  atomic energy  EATOM  =     11693.69420960
  Solvation  Ediel_sol  =         0.00000000
  ---------------------------------------------------
  free energy    TOTEN  =       -92.22844678 eV

  energy without entropy =      -92.17203523  energy(sigma->0) =      -92.20964293


--------------------------------------------------------------------------------------------------------




--------------------------------------- Iteration      1(  13)  ---------------------------------------


    POTLOK:  cpu time    0.0168: real time    0.0180
    SETDIJ:  cpu time    0.0021: real time    0.0021
     EDDAV:  cpu time    5.1011: real time    5.1018
       DOS:  cpu time    0.0010: real time    0.0010
    CHARGE:  cpu time    0.1313: real time    0.1313
    MIXING:  cpu time    0.0008: real time    0.0008
    --------------------------------------------
      LOOP:  cpu time    5.2530: real time    5.2549

 eigenvalue-minimisations  :  5904
 total energy-change (2. order) : 0.1665570E+00  (-0.1369583E+00)
 number of electron     160.0000095 magnetization 
 augmentation part       50.1032481 magnetization 

 Broyden mixing:
  rms(total) = 0.31616E+00    rms(broyden)= 0.31612E+00
  rms(prec ) = 0.33568E+00
  weight for this iteration     100.00

 eigenvalues of (default mixing * dielectric matrix)
  average eigenvalue GAMMA=   0.6657
  2.1204  0.9062  0.6951  0.6951  0.2993  0.2993  0.1089  0.2016

 Free energy of the ion-electron system (eV)
  ---------------------------------------------------
  alpha Z        PSCENC =       303.52543553
  Ewald energy   TEWEN  =     98433.55813087
  -Hartree energ DENC   =   -110325.85346202
  -exchange      EXHF   =         0.00000000
  -V(xc)+E(xc)   XCENC  =        40.51371354
  PAW double counting   =     14295.65873177   -13880.53400426
  entropy T*S    EENTRO =        -0.03347330
  eigenvalues    EBANDS =      -652.59117152
  atomic energy  EATOM  =     11693.69420960
  Solvation  Ediel_sol  =         0.00000000
  ---------------------------------------------------
  free energy    TOTEN  =       -92.06188979 eV

  energy without entropy =      -92.02841649  energy(sigma->0) =      -92.05073203


--------------------------------------------------------------------------------------------------------




--------------------------------------- Iteration      1(  14)  ---------------------------------------


    POTLOK:  cpu time    0.0167: real time    0.0180
    SETDIJ:  cpu time    0.0021: real time    0.0021
     EDDAV:  cpu time    4.1537: real time    4.1543
       DOS:  cpu time    0.0010: real time    0.0010
    CHARGE:  cpu time    0.1311: real time    0.1311
    MIXING:  cpu time    0.0009: real time    0.0009
    --------------------------------------------
      LOOP:  cpu time    4.3055: real time    4.3073

 eigenvalue-minimisations  :  4728
 total energy-change (2. order) : 0.5943134E-02  (-0.7066751E-02)
 number of electron     160.0000096 magnetization 
 augmentation part       50.1249748 magnetization 

 Broyden mixing:
  rms(total) = 0.26983E+00    rms(broyden)= 0.26982E+00
  rms(prec ) = 0.29130E+00
  weight for this iteration     100.00

 eigenvalues of (default mixing * dielectric matrix)
  average eigenvalue GAMMA=   0.7284
  2.1927  1.0351  1.0351  0.9477  0.3517  0.3295  0.3295  0.2256  0.1088

 Free energy of the ion-electron system (eV)
  ---------------------------------------------------
  alpha Z        PSCENC =       303.52543553
  Ewald energy   TEWEN  =     98433.55813087
  -Hartree energ DENC   =   -110324.23106687
  -exchange      EXHF   =         0.00000000
  -V(xc)+E(xc)   XCENC  =        40.49931318
  PAW double counting   =     14279.90892913   -13864.98678624
  entropy T*S    EENTRO =        -0.03633090
  eigenvalues    EBANDS =      -653.98778096
  atomic energy  EATOM  =     11693.69420960
  Solvation  Ediel_sol  =         0.00000000
  ---------------------------------------------------
  free energy    TOTEN  =       -92.05594666 eV

  energy without entropy =      -92.01961575  energy(sigma->0) =      -92.04383636


--------------------------------------------------------------------------------------------------------




--------------------------------------- Iteration      1(  15)  ---------------------------------------


    POTLOK:  cpu time    0.0166: real time    0.0166
    SETDIJ:  cpu time    0.0021: real time    0.0021
     EDDAV:  cpu time    4.1328: real time    4.1333
       DOS:  cpu time    0.0010: real time    0.0010
    CHARGE:  cpu time    0.1316: real time    0.1316
    MIXING:  cpu time    0.0011: real time    0.0011
    --------------------------------------------
      LOOP:  cpu time    4.2851: real time    4.2856

 eigenvalue-minimisations  :  4656
 total energy-change (2. order) : 0.7782784E-02  (-0.7837310E-02)
 number of electron     160.0000095 magnetization 
 augmentation part       50.1259687 magnetization 

 Broyden mixing:
  rms(total) = 0.22005E+00    rms(broyden)= 0.22005E+00
  rms(prec ) = 0.24605E+00
  weight for this iteration     100.00

 eigenvalues of (default mixing * dielectric matrix)
  average eigenvalue GAMMA=   0.7941
  2.1919  1.4543  1.2161  1.2161  0.5594  0.1088  0.3150  0.3150  0.3441  0.2200

 Free energy of the ion-electron system (eV)
  ---------------------------------------------------
  alpha Z        PSCENC =       303.52543553
  Ewald energy   TEWEN  =     98433.55813087
  -Hartree energ DENC   =   -110325.21564670
  -exchange      EXHF   =         0.00000000
  -V(xc)+E(xc)   XCENC  =        40.51162010
  PAW double counting   =     14246.53221891   -13831.78086187
  entropy T*S    EENTRO =        -0.03521276
  eigenvalues    EBANDS =      -652.83805756
  atomic energy  EATOM  =     11693.69420960
  Solvation  Ediel_sol  =         0.00000000
  ---------------------------------------------------
  free energy    TOTEN  =       -92.04816387 eV

  energy without entropy =      -92.01295112  energy(sigma->0) =      -92.03642629


--------------------------------------------------------------------------------------------------------




--------------------------------------- Iteration      1(  16)  ---------------------------------------


    POTLOK:  cpu time    0.0170: real time    0.0184
    SETDIJ:  cpu time    0.0023: real time    0.0023
     EDDAV:  cpu time    4.0343: real time    4.0350
       DOS:  cpu time    0.0008: real time    0.0008
    CHARGE:  cpu time    0.1308: real time    0.1308
    MIXING:  cpu time    0.0011: real time    0.0011
    --------------------------------------------
      LOOP:  cpu time    4.1864: real time    4.1884

 eigenvalue-minimisations  :  4584
 total energy-change (2. order) : 0.6391908E-02  (-0.8782308E-02)
 number of electron     160.0000096 magnetization 
 augmentation part       50.0998441 magnetization 

 Broyden mixing:
  rms(total) = 0.15361E+00    rms(broyden)= 0.15360E+00
  rms(prec ) = 0.19001E+00
  weight for this iteration     100.00

 eigenvalues of (default mixing * dielectric matrix)
  average eigenvalue GAMMA=   0.7854
  2.0861  2.0861  1.0381  1.0381  0.5566  0.5566  0.1088  0.3124  0.3124  0.2213
  0.3229

 Free energy of the ion-electron system (eV)
  ---------------------------------------------------
  alpha Z        PSCENC =       303.52543553
  Ewald energy   TEWEN  =     98433.55813087
  -Hartree energ DENC   =   -110330.50319193
  -exchange      EXHF   =         0.00000000
  -V(xc)+E(xc)   XCENC  =        40.56072382
  PAW double counting   =     14191.75553698   -13776.92293886
  entropy T*S    EENTRO =        -0.03873137
  eigenvalues    EBANDS =      -647.67094661
  atomic energy  EATOM  =     11693.69420960
  Solvation  Ediel_sol  =         0.00000000
  ---------------------------------------------------
  free energy    TOTEN  =       -92.04177197 eV

  energy without entropy =      -92.00304060  energy(sigma->0) =      -92.02886151


--------------------------------------------------------------------------------------------------------




--------------------------------------- Iteration      1(  17)  ---------------------------------------


    POTLOK:  cpu time    0.0164: real time    0.0165
    SETDIJ:  cpu time    0.0021: real time    0.0021
     EDDAV:  cpu time    4.4352: real time    4.4359
       DOS:  cpu time    0.0010: real time    0.0010
    CHARGE:  cpu time    0.1306: real time    0.1306
    MIXING:  cpu time    0.0011: real time    0.0011
    --------------------------------------------
      LOOP:  cpu time    4.5864: real time    4.5871

 eigenvalue-minimisations  :  5088
 total energy-change (2. order) : 0.8490747E-02  (-0.2916035E-02)
 number of electron     160.0000095 magnetization 
 augmentation part       50.0948340 magnetization 

 Broyden mixing:
  rms(total) = 0.10386E+00    rms(broyden)= 0.10385E+00
  rms(prec ) = 0.12629E+00
  weight for this iteration     100.00

 eigenvalues of (default mixing * dielectric matrix)
  average eigenvalue GAMMA=   0.8375
  2.3857  2.3857  1.3217  0.8562  0.8562  0.6137  0.1088  0.2209  0.3142  0.3142
  0.3663  0.3068

 Free energy of the ion-electron system (eV)
  ---------------------------------------------------
  alpha Z        PSCENC =       303.52543553
  Ewald energy   TEWEN  =     98433.55813087
  -Hartree energ DENC   =   -110331.80779987
  -exchange      EXHF   =         0.00000000
  -V(xc)+E(xc)   XCENC  =        40.58017437
  PAW double counting   =     14177.14711158   -13762.23913211
  entropy T*S    EENTRO =        -0.03753874
  eigenvalues    EBANDS =      -646.45387246
  atomic energy  EATOM  =     11693.69420960
  Solvation  Ediel_sol  =         0.00000000
  ---------------------------------------------------
  free energy    TOTEN  =       -92.03328122 eV

  energy without entropy =      -91.99574248  energy(sigma->0) =      -92.02076831


--------------------------------------------------------------------------------------------------------




--------------------------------------- Iteration      1(  18)  ---------------------------------------


    POTLOK:  cpu time    0.0167: real time    0.0168
    SETDIJ:  cpu time    0.0023: real time    0.0023
     EDDAV:  cpu time    4.2714: real time    4.2720
       DOS:  cpu time    0.0008: real time    0.0008
    CHARGE:  cpu time    0.1310: real time    0.1310
    MIXING:  cpu time    0.0011: real time    0.0011
    --------------------------------------------
      LOOP:  cpu time    4.4233: real time    4.4239

 eigenvalue-minimisations  :  4824
 total energy-change (2. order) : 0.5855980E-02  (-0.3194776E-02)
 number of electron     160.0000095 magnetization 
 augmentation part       50.0947569 magnetization 

 Broyden mixing:
  rms(total) = 0.37425E-01    rms(broyden)= 0.37415E-01
  rms(prec ) = 0.40760E-01
  weight for this iteration     100.00

 eigenvalues of (default mixing * dielectric matrix)
  average eigenvalue GAMMA=   0.8576
  2.3562  1.7411  1.7411  1.0114  1.0114  0.9867  0.6744  0.1088  0.2211  0.3143
  0.3143  0.3641  0.3035

 Free energy of the ion-electron system (eV)
  ---------------------------------------------------
  alpha Z        PSCENC =       303.52543553
  Ewald energy   TEWEN  =     98433.55813087
  -Hartree energ DENC   =   -110333.24547217
  -exchange      EXHF   =         0.00000000
  -V(xc)+E(xc)   XCENC  =        40.59589757
  PAW double counting   =     14163.94782871   -13748.95045330
  entropy T*S    EENTRO =        -0.03599898
  eigenvalues    EBANDS =      -645.11700307
  atomic energy  EATOM  =     11693.69420960
  Solvation  Ediel_sol  =         0.00000000
  ---------------------------------------------------
  free energy    TOTEN  =       -92.02742524 eV

  energy without entropy =      -91.99142626  energy(sigma->0) =      -92.01542558


--------------------------------------------------------------------------------------------------------




--------------------------------------- Iteration      1(  19)  ---------------------------------------


    POTLOK:  cpu time    0.0165: real time    0.0166
    SETDIJ:  cpu time    0.0021: real time    0.0021
     EDDAV:  cpu time    4.0831: real time    4.0836
       DOS:  cpu time    0.0008: real time    0.0008
    CHARGE:  cpu time    0.1308: real time    0.1309
    MIXING:  cpu time    0.0012: real time    0.0012
    --------------------------------------------
      LOOP:  cpu time    4.2345: real time    4.2351

 eigenvalue-minimisations  :  4632
 total energy-change (2. order) : 0.7074333E-03  (-0.3936546E-03)
 number of electron     160.0000095 magnetization 
 augmentation part       50.0895623 magnetization 

 Broyden mixing:
  rms(total) = 0.22200E-01    rms(broyden)= 0.22198E-01
  rms(prec ) = 0.22550E-01
  weight for this iteration     100.00

 eigenvalues of (default mixing * dielectric matrix)
  average eigenvalue GAMMA=   0.8584
  2.3217  2.1632  1.6424  1.0120  1.0120  1.0590  0.7140  0.1088  0.4648  0.2211
  0.3142  0.3142  0.3673  0.3027

 Free energy of the ion-electron system (eV)
  ---------------------------------------------------
  alpha Z        PSCENC =       303.52543553
  Ewald energy   TEWEN  =     98433.55813087
  -Hartree energ DENC   =   -110334.83635070
  -exchange      EXHF   =         0.00000000
  -V(xc)+E(xc)   XCENC  =        40.59656031
  PAW double counting   =     14183.59022253   -13768.60728124
  entropy T*S    EENTRO =        -0.03623693
  eigenvalues    EBANDS =      -643.51140777
  atomic energy  EATOM  =     11693.69420960
  Solvation  Ediel_sol  =         0.00000000
  ---------------------------------------------------
  free energy    TOTEN  =       -92.02671781 eV

  energy without entropy =      -91.99048087  energy(sigma->0) =      -92.01463883


--------------------------------------------------------------------------------------------------------




--------------------------------------- Iteration      1(  20)  ---------------------------------------


    POTLOK:  cpu time    0.0166: real time    0.0167
    SETDIJ:  cpu time    0.0021: real time    0.0021
     EDDAV:  cpu time    4.9045: real time    4.9051
       DOS:  cpu time    0.0010: real time    0.0010
    CHARGE:  cpu time    0.1305: real time    0.1305
    MIXING:  cpu time    0.0013: real time    0.0013
    --------------------------------------------
      LOOP:  cpu time    5.0560: real time    5.0566

 eigenvalue-minimisations  :  5664
 total energy-change (2. order) :-0.2544782E-03  (-0.2154588E-03)
 number of electron     160.0000095 magnetization 
 augmentation part       50.0878470 magnetization 

 Broyden mixing:
  rms(total) = 0.28771E-01    rms(broyden)= 0.28771E-01
  rms(prec ) = 0.34471E-01
  weight for this iteration     100.00

 eigenvalues of (default mixing * dielectric matrix)
  average eigenvalue GAMMA=   0.8836
  2.2120  2.2120  1.6832  1.2129  1.2129  0.8348  0.8348  0.7975  0.6253  0.1088
  0.2211  0.3141  0.3141  0.3686  0.3024

 Free energy of the ion-electron system (eV)
  ---------------------------------------------------
  alpha Z        PSCENC =       303.52543553
  Ewald energy   TEWEN  =     98433.55813087
  -Hartree energ DENC   =   -110335.76514754
  -exchange      EXHF   =         0.00000000
  -V(xc)+E(xc)   XCENC  =        40.60246626
  PAW double counting   =     14186.38935925   -13771.37452492
  entropy T*S    EENTRO =        -0.03641031
  eigenvalues    EBANDS =      -642.62049102
  atomic energy  EATOM  =     11693.69420960
  Solvation  Ediel_sol  =         0.00000000
  ---------------------------------------------------
  free energy    TOTEN  =       -92.02697228 eV

  energy without entropy =      -91.99056198  energy(sigma->0) =      -92.01483552


--------------------------------------------------------------------------------------------------------




--------------------------------------- Iteration      1(  21)  ---------------------------------------


    POTLOK:  cpu time    0.0170: real time    0.0234
    SETDIJ:  cpu time    0.0021: real time    0.0021
     EDDAV:  cpu time    5.1286: real time    5.1294
       DOS:  cpu time    0.0008: real time    0.0008
    CHARGE:  cpu time    0.1308: real time    0.1308
    MIXING:  cpu time    0.0013: real time    0.0013
    --------------------------------------------
      LOOP:  cpu time    5.2806: real time    5.2878

 eigenvalue-minimisations  :  5952
 total energy-change (2. order) : 0.1389496E-03  (-0.6424098E-03)
 number of electron     160.0000095 magnetization 
 augmentation part       50.0856191 magnetization 

 Broyden mixing:
  rms(total) = 0.15772E-01    rms(broyden)= 0.15770E-01
  rms(prec ) = 0.19948E-01
  weight for this iteration     100.00

 eigenvalues of (default mixing * dielectric matrix)
  average eigenvalue GAMMA=   0.9241
  2.4089  2.4089  1.6156  1.6156  1.3683  0.9069  0.9069  0.8251  0.7016  0.1088
  0.2211  0.3140  0.3140  0.3843  0.3843  0.3016

 Free energy of the ion-electron system (eV)
  ---------------------------------------------------
  alpha Z        PSCENC =       303.52543553
  Ewald energy   TEWEN  =     98433.55813087
  -Hartree energ DENC   =   -110336.58571170
  -exchange      EXHF   =         0.00000000
  -V(xc)+E(xc)   XCENC  =        40.60625474
  PAW double counting   =     14188.66144885   -13773.62726432
  entropy T*S    EENTRO =        -0.03630111
  eigenvalues    EBANDS =      -641.82303579
  atomic energy  EATOM  =     11693.69420960
  Solvation  Ediel_sol  =         0.00000000
  ---------------------------------------------------
  free energy    TOTEN  =       -92.02683333 eV

  energy without entropy =      -91.99053222  energy(sigma->0) =      -92.01473296


--------------------------------------------------------------------------------------------------------




--------------------------------------- Iteration      1(  22)  ---------------------------------------


    POTLOK:  cpu time    0.0168: real time    0.0168
    SETDIJ:  cpu time    0.0023: real time    0.0023
     EDDAV:  cpu time    4.0862: real time    4.0867
       DOS:  cpu time    0.0009: real time    0.0009
    CHARGE:  cpu time    0.1307: real time    0.1307
    MIXING:  cpu time    0.0014: real time    0.0014
    --------------------------------------------
      LOOP:  cpu time    4.2382: real time    4.2387

 eigenvalue-minimisations  :  4656
 total energy-change (2. order) : 0.1170303E-03  (-0.3089540E-04)
 number of electron     160.0000095 magnetization 
 augmentation part       50.0844215 magnetization 

 Broyden mixing:
  rms(total) = 0.99135E-02    rms(broyden)= 0.99134E-02
  rms(prec ) = 0.12298E-01
  weight for this iteration     100.00

 eigenvalues of (default mixing * dielectric matrix)
  average eigenvalue GAMMA=   0.9952
  2.8274  2.8274  2.2991  1.3643  1.3643  0.8920  0.8920  0.9614  0.6919  0.6919
  0.1088  0.4735  0.2211  0.3140  0.3140  0.3741  0.3019

 Free energy of the ion-electron system (eV)
  ---------------------------------------------------
  alpha Z        PSCENC =       303.52543553
  Ewald energy   TEWEN  =     98433.55813087
  -Hartree energ DENC   =   -110337.25286295
  -exchange      EXHF   =         0.00000000
  -V(xc)+E(xc)   XCENC  =        40.61038549
  PAW double counting   =     14189.74988982   -13774.70102984
[...]
     80      -1.0889      2.06149
     81      -1.0605      2.06989
     82      -1.0322      2.06865
     83      -1.0038      2.05062
     84      -0.9918      2.03591
     85      -0.8957      1.69608
     86      -0.8699      1.52937
     87      -0.2026     -0.00018
     88       0.0309     -0.00000
     89       0.0883     -0.00000
     90       1.7816     -0.00000
     91       2.0955     -0.00000
     92       2.1330     -0.00000
     93       3.9245     -0.00000
     94       3.9946     -0.00000
     95       4.3226     -0.00000
     96       4.4219     -0.00000

 k-point    19 :       0.4375    0.4375    0.0000
  band No.  band energies     occupation 
      1      -8.7309      2.00000
      2      -8.0613      2.00000
      3      -7.5994      2.00000
      4      -7.2058      2.00000
      5      -6.7289      2.00000
      6      -6.5822      2.00000
      7      -6.5800      2.00000
      8      -6.5655      2.00000
      9      -6.4730      2.00000
     10      -6.4619      2.00000
     11      -6.4451      2.00000
     12      -6.2250      2.00000
     13      -6.1099      2.00000
     14      -6.0744      2.00000
     15      -5.9748      2.00000
     16      -5.8196      2.00000
     17      -5.8192      2.00000
     18      -5.6166      2.00000
     19      -5.5659      2.00000
     20      -5.4604      2.00000
     21      -5.3314      2.00000
     22      -5.3054      2.00000
     23      -5.2664      2.00000
     24      -5.1500      2.00000
     25      -5.0904      2.00000
     26      -5.0189      2.00000
     27      -4.9996      2.00000
     28      -4.8066      2.00000
     29      -4.7819      2.00000
     30      -4.6968      2.00000
     31      -4.6403      2.00000
     32      -4.5347      2.00000
     33      -4.4777      2.00000
     34      -4.4762      2.00000
     35      -4.3610      2.00000
     36      -4.2314      2.00000
     37      -4.1196      2.00000
     38      -4.0501      2.00000
     39      -3.9717      2.00000
     40      -3.8753      2.00000
     41      -3.7859      2.00000
     42      -3.7365      2.00000
     43      -3.7224      2.00000
     44      -3.6705      2.00000
     45      -3.6317      2.00000
     46      -3.6264      2.00000
     47      -3.5831      2.00000
     48      -3.5164      2.00000
     49      -3.5076      2.00000
     50      -3.4355      2.00000
     51      -3.3195      2.00000
     52      -3.2663      2.00000
     53      -3.2076      2.00000
     54      -3.0153      2.00000
     55      -2.9836      2.00000
     56      -2.9623      2.00000
     57      -2.8799      2.00000
     58      -2.7716      2.00000
     59      -2.7294      2.00000
     60      -2.5961      2.00000
     61      -2.5242      2.00000
     62      -2.3945      2.00000
     63      -2.3889      2.00000
     64      -2.2941      2.00000
     65      -2.2520      2.00000
     66      -2.1950      2.00000
     67      -2.0929      2.00000
     68      -2.0871      2.00000
     69      -2.0342      2.00000
     70      -2.0034      2.00000
     71      -1.8751      2.00000
     72      -1.8384      2.00000
     73      -1.7989      2.00000
     74      -1.5955      2.00000
     75      -1.3831      2.00033
     76      -1.2597      2.00582
     77      -1.2020      2.01637
     78      -1.1220      2.04679
     79      -0.8401      1.30457
     80      -0.7748      0.76040
     81      -0.7637      0.67104
     82      -0.7448      0.52625
     83      -0.6369      0.00407
     84      -0.4850     -0.04687
     85      -0.4764     -0.04291
     86      -0.3428     -0.00533
     87       1.1561     -0.00000
     88       1.1928     -0.00000
     89       1.2799     -0.00000
     90       1.7479     -0.00000
     91       1.7808     -0.00000
     92       1.8108     -0.00000
     93       2.8551     -0.00000
     94       2.8731     -0.00000
     95       3.2801     -0.00000
     96       4.3645     -0.00000

 k-point    20 :      -0.4375    0.4375    0.0000
  band No.  band energies     occupation 
      1      -8.3014      2.00000
      2      -8.2787      2.00000
      3      -7.3046      2.00000
      4      -7.2467      2.00000
      5      -6.8303      2.00000
      6      -6.5696      2.00000
      7      -6.5060      2.00000
      8      -6.4478      2.00000
      9      -6.3569      2.00000
     10      -6.2659      2.00000
     11      -6.2153      2.00000
     12      -6.1407      2.00000
     13      -6.1308      2.00000
     14      -5.9547      2.00000
     15      -5.7946      2.00000
     16      -5.6982      2.00000
     17      -5.6959      2.00000
     18      -5.6676      2.00000
     19      -5.5396      2.00000
     20      -5.4679      2.00000
     21      -5.3408      2.00000
     22      -5.2868      2.00000
     23      -5.2705      2.00000
     24      -5.2029      2.00000
     25      -5.1618      2.00000
     26      -5.0834      2.00000
     27      -5.0575      2.00000
     28      -5.0166      2.00000
     29      -4.8047      2.00000
     30      -4.6943      2.00000
     31      -4.6602      2.00000
     32      -4.5980      2.00000
     33      -4.5660      2.00000
     34      -4.4470      2.00000
     35      -4.4350      2.00000
     36      -4.2948      2.00000
     37      -4.2248      2.00000
     38      -4.1567      2.00000
     39      -4.1116      2.00000
     40      -4.0916      2.00000
     41      -4.0051      2.00000
     42      -3.9452      2.00000
     43      -3.8070      2.00000
     44      -3.7238      2.00000
     45      -3.6949      2.00000
     46      -3.6666      2.00000
     47      -3.6355      2.00000
     48      -3.6018      2.00000
     49      -3.5847      2.00000
     50      -3.4389      2.00000
     51      -3.3948      2.00000
     52      -3.2705      2.00000
     53      -3.1363      2.00000
     54      -2.9779      2.00000
     55      -2.9523      2.00000
     56      -2.9175      2.00000
     57      -2.8630      2.00000
     58      -2.7783      2.00000
     59      -2.6871      2.00000
     60      -2.5789      2.00000
     61      -2.5035      2.00000
     62      -2.4718      2.00000
     63      -2.4145      2.00000
     64      -2.3052      2.00000
     65      -2.2144      2.00000
     66      -2.1562      2.00000
     67      -2.1287      2.00000
     68      -2.0776      2.00000
     69      -1.9616      2.00000
     70      -1.8905      2.00000
     71      -1.8634      2.00000
     72      -1.7795      2.00000
     73      -1.7135      2.00000
     74      -1.6018      2.00000
     75      -1.4146      2.00014
     76      -1.2853      2.00344
     77      -1.2479      2.00732
     78      -1.1468      2.03566
     79      -0.9601      1.97126
     80      -0.8946      1.68961
     81      -0.8475      1.36293
     82      -0.7757      0.76795
     83      -0.6246     -0.02074
     84      -0.6050     -0.04864
     85      -0.4411     -0.02796
     86      -0.3816     -0.01105
     87       0.2154     -0.00000
     88       0.5028     -0.00000
     89       1.4616     -0.00000
     90       1.5471     -0.00000
     91       1.5865     -0.00000
     92       2.3598     -0.00000
     93       3.1708     -0.00000
     94       3.4302     -0.00000
     95       3.9472     -0.00000
     96       3.9928     -0.00000


--------------------------------------------------------------------------------------------------------


 soft charge-density along one line, spin component           1
         0         1         2         3         4         5         6         7         8         9
 total charge-density along one line
 
 pseudopotential strength for first ion, spin component:           1
 -8.306  -0.000  -0.000  -0.013  -0.000  -8.516  -0.000  -0.000
 -0.000  -8.234   0.000  -0.000  -0.013  -0.000  -8.445   0.000
 -0.000   0.000  -8.236   0.000  -0.000  -0.000   0.000  -8.447
 -0.013  -0.000   0.000  -8.234  -0.000  -0.013  -0.000   0.000
 -0.000  -0.013  -0.000  -0.000  -8.306  -0.000  -0.013  -0.000
 -8.516  -0.000  -0.000  -0.013  -0.000  -8.712  -0.000  -0.000
 -0.000  -8.445   0.000  -0.000  -0.013  -0.000  -8.642   0.000
 -0.000   0.000  -8.447   0.000  -0.000  -0.000   0.000  -8.644
 -0.013  -0.000   0.000  -8.445  -0.000  -0.013  -0.000   0.000
 -0.000  -0.013  -0.000  -0.000  -8.516  -0.000  -0.013  -0.000
  0.000  -0.000  -0.020  -0.000   0.000   0.000  -0.000  -0.020
  0.000  -0.000  -0.030  -0.000   0.000   0.000  -0.000  -0.030
 -0.000  -0.007  -0.000  -0.000   0.000  -0.000  -0.007  -0.000
 -0.000  -0.000  -0.014  -0.000  -0.000  -0.000  -0.000  -0.014
  0.000  -0.000  -0.000  -0.007  -0.000   0.000  -0.000  -0.000
 -0.000  -0.006  -0.000  -0.000   0.000  -0.000  -0.006  -0.000
 -0.000  -0.000  -0.015  -0.000  -0.000  -0.000  -0.000  -0.015
  0.000  -0.000  -0.000  -0.006  -0.000   0.000  -0.000  -0.000
 total augmentation occupancy for first ion, spin component:           1
  2.641   0.000  -0.000  -0.329   0.000  -1.869  -0.000   0.000   0.110  -0.000   0.000   0.000   0.000   0.000  -0.039  -0.000
  0.000   3.393   0.000   0.000  -0.329  -0.000  -1.878  -0.000  -0.000   0.116   0.000   0.000  -0.237   0.000  -0.000   0.008
 -0.000   0.000   3.584   0.000  -0.000   0.000  -0.000  -2.325  -0.000   0.000   0.657  -0.059   0.000  -0.234   0.000  -0.000
 -0.329   0.000   0.000   3.393  -0.000   0.116  -0.000   0.000  -1.878   0.000   0.000   0.000  -0.000   0.000  -0.237   0.000
  0.000  -0.329  -0.000  -0.000   2.641   0.000   0.110   0.000   0.000  -1.869  -0.000   0.000  -0.039   0.000  -0.000   0.003
 -1.869  -0.000   0.000   0.116  -0.000   2.531  -0.000  -0.000   0.034   0.000   0.000  -0.000  -0.000  -0.000   0.042   0.000
 -0.000  -1.878  -0.000  -0.000   0.110  -0.000   1.965  -0.000   0.000   0.034   0.000   0.000   0.230   0.000   0.000  -0.016
  0.000  -0.000  -2.325  -0.000   0.000  -0.000  -0.000   2.610   0.000  -0.000  -0.693   0.087  -0.000   0.325  -0.000   0.000
  0.110  -0.000  -0.000  -1.878   0.000   0.034   0.000   0.000   1.965  -0.000   0.000  -0.000   0.000  -0.000   0.230  -0.000
 -0.000   0.116   0.000   0.000  -1.869   0.000   0.034  -0.000   0.000   2.531   0.000  -0.000   0.042  -0.000   0.000  -0.003
  0.000   0.000   0.657   0.000  -0.000   0.000   0.000  -0.693  -0.000   0.000   2.090  -0.341   0.000   0.173  -0.000   0.000
  0.000  -0.000  -0.059   0.000   0.000  -0.000   0.000   0.087  -0.000  -0.000  -0.341   0.073   0.000  -0.050   0.000   0.000
  0.000  -0.237   0.000  -0.000  -0.039  -0.000   0.230  -0.000   0.000   0.042   0.000  -0.000   0.265   0.000   0.000  -0.014
  0.000  -0.000  -0.234   0.000   0.000  -0.000   0.000   0.325   0.000  -0.000   0.173  -0.050  -0.000   0.146  -0.000  -0.000
 -0.039  -0.000   0.000  -0.237  -0.000   0.042   0.000  -0.000   0.230   0.000  -0.000   0.000   0.000   0.000   0.265  -0.000
 -0.000   0.008  -0.000   0.000   0.003   0.000  -0.016   0.000  -0.000  -0.003  -0.000   0.000  -0.014   0.000  -0.000   0.001
  0.000   0.000  -0.003  -0.000   0.000   0.000   0.000  -0.019   0.000   0.000  -0.018   0.004   0.000  -0.009   0.000  -0.000
  0.003   0.000  -0.000   0.008   0.000  -0.003  -0.000   0.000  -0.016  -0.000  -0.000   0.000  -0.000   0.000  -0.014   0.000


------------------------ aborting loop because EDIFF is reached ----------------------------------------



 DIPCOR: dipole corrections for dipol
 direction  3 min pos   271,
 dipolmoment           0.000000      0.000000     -0.018392 electrons x Angstroem
 Tr[quadrupol]      -951.298759

 energy correction for charged system         0.000000 eV
 dipol+quadrupol energy correction            0.000037 eV
 added-field ion interaction          0.000000 eV  (added to PSCEN)

 
  *************** adding dipol energy to TOTEN NOW **************** 
    CHARGE:  cpu time    0.1309: real time    0.1309
    FORLOC:  cpu time    0.0023: real time    0.0023
    FORNL :  cpu time    1.7523: real time    1.7525
    STRESS:  cpu time    2.9515: real time    2.9519
    FORCOR:  cpu time    0.0194: real time    0.0199
    FORHAR:  cpu time    0.0055: real time    0.0055
    MIXING:  cpu time    0.0017: real time    0.0017
    OFIELD:  cpu time    0.0001: real time    0.0001

  FORCE on cell =-STRESS in cart. coord.  units (eV):
  Direction    XX          YY          ZZ          XY          YZ          ZX
  --------------------------------------------------------------------------------------
  Alpha Z   303.52544   303.52544   303.52544
  Ewald  107325.75383107325.75383************     0.00000    -0.00000    -0.00000
  Hartree109635.65688109635.65688************    -0.00000     0.00000     0.00000
  E(xc)    -709.71514  -709.71514  -714.44338     0.00001    -0.00000    -0.00001
  Local  ************************222305.44855     0.00104    -0.00004    -0.00007
  n-local    95.95955    22.36769    41.66157   -21.31155    -4.54478     2.53163
  augment   834.49379   834.49470   862.17520    -0.00079     0.00000     0.00000
  Kinetic  2294.07742  2270.64303  2353.10388    -6.30229    -5.76023     3.87457
  Fock        0.00000     0.00000     0.00000     0.00000     0.00000     0.00000
  -------------------------------------------------------------------------------------
  Total     -11.22942   -11.22942    -0.62735     0.00000     0.00000     0.00000
  in kB     -21.83098   -21.83098    -1.21963     0.00000     0.00000     0.00000
  external pressure =      -14.96 kB  Pullay stress =        0.00 kB


 VOLUME and BASIS-vectors are now :
 -----------------------------------------------------------------------------
  energy-cutoff  :      350.00
  volume of cell :      824.13
      direct lattice vectors                 reciprocal lattice vectors
     5.557859300  0.000000000  0.000000000     0.179925390 -0.103879972  0.000000000
     2.778929650  4.813247345  0.000000000     0.000000000  0.207759944  0.000000000
     0.000000000  0.000000000 30.806959674     0.000000000  0.000000000  0.032460198

  length of vectors
     5.557859300  5.557859300 30.806959674     0.207759944  0.207759944  0.032460198


 FORCES acting on ions
    electron-ion (+dipol)            ewald-force                    non-local-force                 convergence-correction
 -----------------------------------------------------------------------------------------------
   -.477E-06 -.275E-06 0.257E+04   -.873E-12 -.468E-12 -.256E+04   -.163E-17 -.217E-18 -.151E+00   0.237E-08 0.137E-08 0.135E+00
   0.878E-06 -.305E-02 0.285E+04   -.951E-12 -.564E-12 -.285E+04   -.347E-17 0.643E-01 -.775E+00   0.126E-08 -.143E-02 0.146E+00
   -.264E-02 0.153E-02 0.285E+04   -.945E-12 -.586E-12 -.285E+04   0.557E-01 -.321E-01 -.775E+00   -.124E-02 0.713E-03 0.146E+00
   0.265E-02 0.153E-02 0.285E+04   -.945E-12 -.586E-12 -.285E+04   -.557E-01 -.321E-01 -.775E+00   0.124E-02 0.713E-03 0.146E+00
   0.443E+01 0.256E+01 0.100E+04   -.465E+01 -.268E+01 -.100E+04   0.382E-01 0.220E-01 -.271E+00   0.262E-01 0.151E-01 0.384E+00
   -.443E+01 0.256E+01 0.100E+04   0.465E+01 -.268E+01 -.100E+04   -.382E-01 0.220E-01 -.271E+00   -.262E-01 0.151E-01 0.384E+00
   0.115E-05 -.511E+01 0.100E+04   0.321E-11 0.536E+01 -.100E+04   0.347E-17 -.441E-01 -.271E+00   -.234E-07 -.303E-01 0.384E+00
   0.125E-05 0.723E-06 0.995E+03   0.274E-11 0.167E-11 -.996E+03   -.542E-19 -.130E-17 -.190E+00   -.531E-08 -.306E-08 0.356E+00
   -.115E-05 -.511E+01 -.897E+03   -.266E-11 0.525E+01 0.897E+03   -.434E-18 -.543E-02 0.402E+00   -.542E-08 0.340E-02 0.188E+00
   -.112E-05 -.646E-06 -.903E+03   -.313E-11 -.185E-11 0.902E+03   -.173E-17 -.434E-18 0.412E+00   -.121E-08 -.698E-09 0.192E+00
   0.442E+01 0.255E+01 -.897E+03   -.455E+01 -.263E+01 0.897E+03   0.470E-02 0.271E-02 0.402E+00   -.294E-02 -.170E-02 0.188E+00
   -.442E+01 0.255E+01 -.897E+03   0.455E+01 -.263E+01 0.897E+03   -.470E-02 0.271E-02 0.402E+00   0.294E-02 -.170E-02 0.188E+00
   -.104E-05 -.600E-01 -.281E+04   0.948E-12 0.553E-12 0.281E+04   -.347E-17 0.782E-01 0.101E+01   -.669E-09 0.579E-02 -.372E-01
   -.520E-01 0.300E-01 -.281E+04   0.968E-12 0.516E-12 0.281E+04   0.678E-01 -.391E-01 0.101E+01   0.501E-02 -.290E-02 -.372E-01
   0.520E-01 0.300E-01 -.281E+04   0.946E-12 0.540E-12 0.281E+04   -.678E-01 -.391E-01 0.101E+01   -.501E-02 -.290E-02 -.372E-01
   -.105E-05 -.606E-06 -.309E+04   0.997E-12 0.601E-12 0.309E+04   -.542E-19 0.745E-18 0.367E+00   -.211E-08 -.122E-08 -.374E-01
 -----------------------------------------------------------------------------------------------
   -.985E-06 -.569E-06 -.423E+01   0.130E-13 0.213E-13 0.909E-12   -.278E-16 0.146E-16 0.154E+01   -.234E-07 -.135E-07 0.269E+01
 
 
 POSITION                                       TOTAL-FORCE (eV/Angst)
 -----------------------------------------------------------------------------------
      0.00000      0.00000     12.00000        -0.000000      0.000000      1.104701
      2.77893      0.00000     12.00000        -0.000000      0.059798     -0.177398
      1.38946      2.40662     12.00000         0.051786     -0.029899     -0.177398
      4.16839      2.40662     12.00000        -0.051786     -0.029899     -0.177398
      1.38946      0.80221     14.31554        -0.155017     -0.089499     -0.224320
      4.16839      0.80221     14.31554         0.155017     -0.089499     -0.224320
      2.77893      3.20883     14.31554        -0.000000      0.178998     -0.224320
      5.55786      3.20883     14.31554        -0.000000      0.000000     -0.121984
      5.55786      1.60442     16.61120        -0.000000      0.141551     -0.103547
      2.77893      1.60442     16.61120        -0.000000      0.000000     -0.096666
      6.94732      4.01104     16.61120        -0.122587     -0.070776     -0.103547
      4.16839      4.01104     16.61120         0.122587     -0.070776     -0.103547
      2.77893      0.00000     18.94198        -0.000000      0.023990     -0.142449
      1.38946      2.40662     18.94198         0.020776     -0.011995     -0.142449
      4.16839      2.40662     18.94198        -0.020776     -0.011995     -0.142449
      0.00000      0.00000     18.94198        -0.000000      0.000000      1.057092
 -----------------------------------------------------------------------------------
    total drift:                               -0.000001     -0.000001     -0.007514


--------------------------------------------------------------------------------------------------------



  FREE ENERGIE OF THE ION-ELECTRON SYSTEM (eV)
  ---------------------------------------------------
  free  energy   TOTEN  =       -92.02663327 eV

  energy  without entropy=      -91.99036673  energy(sigma->0) =      -92.01454442
 


--------------------------------------------------------------------------------------------------------


    POTLOK:  cpu time    0.0201: real time    0.0201


--------------------------------------------------------------------------------------------------------


     LOOP+:  cpu time  112.7056: real time  112.7649
    4ORBIT:  cpu time    0.0000: real time    0.0000

 total amount of memory used by VASP MPI-rank0   165803. kBytes
=======================================================================

   base      :      30000. kBytes
   nonl-proj :     109741. kBytes
   fftplans  :       2015. kBytes
   grid      :       7641. kBytes
   one-center:        248. kBytes
   wavefun   :      16158. kBytes
 
  
  
 General timing and accounting informations for this job:
 ========================================================
  
                  Total CPU time used (sec):      115.209
                            User time (sec):      114.578
                          System time (sec):        0.631
                         Elapsed time (sec):      115.598
  
                   Maximum memory used (kb):      196988.
                   Average memory used (kb):           0.
  
                          Minor page faults:        63237
                          Major page faults:           39
                 Voluntary context switches:          847
