<?xml version="1.0" encoding="ISO-8859-1"?>
<modeling>
 <generator>
  <i name="program" type="string">vasp </i>
  <i name="version" type="string">5.4.4.18Apr17-6-g9f103f2a35  </i>
  <i name="subversion" type="string">(build Apr 28 2017 10:53:45) complex            parallel </i>
  <i name="platform" type="string">LinuxIFC </i>
  <i name="date" type="string">2020 02 16 </i>
  <i name="time" type="string">20:46:14 </i>
 </generator>
 <incar>
  <i type="string" name="PREC">normal</i>
  <i type="int" name="ISPIN">     1</i>
  <i type="int" name="IBRION">     2</i>
  <i name="EDIFF">      0.00001000</i>
  <i name="EDIFFG">     -0.05000000</i>
  <i type="int" name="NSW">     0</i>
  <i name="ENCUT">    350.00000000</i>
  <i type="logical" name="LWAVE"> F  </i>
  <i type="logical" name="LCHARG"> F  </i>
  <v type="int" name="KPOINT_BSE">    -1     0     0     0</v>
  <i type="string" name="GGA"> PE</i>
  <i type="int" name="IDIPOL">     3</i>
 </incar>
 <structure name="primitive_cell" >
  <crystal>
   <varray name="basis" >
    <v>       5.55785930       0.00000000       0.00000000 </v>
    <v>       2.77892965       4.81324734       0.00000000 </v>
    <v>       0.00000000       0.00000000      30.80695967 </v>
   </varray>
   <i name="volume">    824.12780743 </i>
   <varray name="rec_basis" >
    <v>       0.17992539      -0.10387997       0.00000000 </v>
    <v>       0.00000000       0.20775994       0.00000000 </v>
    <v>       0.00000000       0.00000000       0.03246020 </v>
   </varray>
  </crystal>
  <varray name="positions" >
   <v>       0.00000000       0.00000000       0.38952237 </v>
   <v>       0.00000000      -0.50000000       0.38952237 </v>
   <v>      -0.50000000      -0.50000000       0.38952237 </v>
   <v>      -0.50000000       0.00000000       0.38952237 </v>
   <v>       0.16666667       0.16666667       0.46468540 </v>
   <v>       0.16666667      -0.33333333       0.46468540 </v>
   <v>      -0.33333333       0.16666667       0.46468540 </v>
   <v>      -0.33333333      -0.33333333       0.46468540 </v>
   <v>      -0.16666667      -0.16666667      -0.46079704 </v>
   <v>      -0.16666667       0.33333333      -0.46079704 </v>
   <v>       0.33333333      -0.16666667      -0.46079704 </v>
   <v>       0.33333333       0.33333333      -0.46079704 </v>
   <v>       0.00000000       0.00000000      -0.38513957 </v>
   <v>      -0.50000000       0.00000000      -0.38513957 </v>
   <v>       0.00000000      -0.50000000      -0.38513957 </v>
   <v>      -0.50000000      -0.50000000      -0.38513957 </v>
  </varray>
 </structure>
 <varray name="primitive_index" >
  <v type="int" >        1 </v>
  <v type="int" >        3 </v>
  <v type="int" >        4 </v>
  <v type="int" >        2 </v>
  <v type="int" >        5 </v>
  <v type="int" >        7 </v>
  <v type="int" >        6 </v>
  <v type="int" >        8 </v>
  <v type="int" >       11 </v>
  <v type="int" >        9 </v>
  <v type="int" >       12 </v>
  <v type="int" >       10 </v>
  <v type="int" >       16 </v>
  <v type="int" >       13 </v>
  <v type="int" >       14 </v>
  <v type="int" >       15 </v>
 </varray>
 <kpoints>
  <generation param="Monkhorst-Pack">
   <v type="int" name="divisions">       8        8        1 </v>
   <v name="usershift">      0.00000000       0.00000000       0.00000000 </v>
   <v name="genvec1">      0.12500000       0.00000000       0.00000000 </v>
   <v name="genvec2">      0.00000000       0.12500000       0.00000000 </v>
   <v name="genvec3">      0.00000000       0.00000000       1.00000000 </v>
   <v name="shift">      0.50000000       0.50000000       0.00000000 </v>
  </generation>
  <varray name="kpointlist" >
   <v>       0.06250000       0.06250000       0.00000000 </v>
   <v>       0.18750000       0.06250000       0.00000000 </v>
   <v>       0.31250000       0.06250000       0.00000000 </v>
   <v>       0.43750000       0.06250000       0.00000000 </v>
   <v>      -0.43750000       0.06250000       0.00000000 </v>
   <v>      -0.31250000       0.06250000       0.00000000 </v>
   <v>      -0.18750000       0.06250000       0.00000000 </v>
   <v>      -0.06250000       0.06250000       0.00000000 </v>
   <v>       0.18750000       0.18750000       0.00000000 </v>
   <v>       0.31250000       0.18750000       0.00000000 </v>
   <v>       0.43750000       0.18750000       0.00000000 </v>
   <v>      -0.43750000       0.18750000       0.00000000 </v>
   <v>      -0.31250000       0.18750000       0.00000000 </v>
   <v>      -0.18750000       0.18750000       0.00000000 </v>
   <v>       0.31250000       0.31250000       0.00000000 </v>
   <v>       0.43750000       0.31250000       0.00000000 </v>
   <v>      -0.43750000       0.31250000       0.00000000 </v>
   <v>      -0.31250000       0.31250000       0.00000000 </v>
   <v>       0.43750000       0.43750000       0.00000000 </v>
   <v>      -0.43750000       0.43750000       0.00000000 </v>
  </varray>
  <varray name="weights" >
   <v>       0.03125000 </v>
   <v>       0.06250000 </v>
   <v>       0.06250000 </v>
   <v>       0.06250000 </v>
   <v>       0.06250000 </v>
   <v>       0.06250000 </v>
   <v>       0.06250000 </v>
   <v>       0.03125000 </v>
   <v>       0.03125000 </v>
   <v>       0.06250000 </v>
   <v>       0.06250000 </v>
   <v>       0.06250000 </v>
   <v>       0.06250000 </v>
   <v>       0.03125000 </v>
   <v>       0.03125000 </v>
   <v>       0.06250000 </v>
   <v>       0.06250000 </v>
   <v>       0.03125000 </v>
   <v>       0.03125000 </v>
   <v>       0.03125000 </v>
  </varray>
 </kpoints>
 <parameters>
  <separator name="general" >
   <i type="string" name="SYSTEM">unknown system</i>
   <i type="logical" name="LCOMPAT"> F  </i>
  </separator>
  <separator name="electronic" >
   <i type="string" name="PREC">normal</i>
   <i name="ENMAX">    350.00000000</i>
   <i name="ENAUG">    358.96600000</i>
   <i name="EDIFF">      0.00001000</i>
   <i type="int" name="IALGO">    38</i>
   <i type="int" name="IWAVPR">    10</i>
   <i type="int" name="NBANDS">    96</i>
   <i name="NELECT">    160.00000000</i>
   <i type="int" name="TURBO">     0</i>
   <i type="int" name="IRESTART">     0</i>
   <i type="int" name="NREBOOT">     0</i>
   <i type="int" name="NMIN">     0</i>
   <i name="EREF">      0.00000000</i>
   <separator name="electronic smearing" >
    <i type="int" name="ISMEAR">     1</i>
    <i name="SIGMA">      0.20000000</i>
    <i name="KSPACING">      0.50000000</i>
    <i type="logical" name="KGAMMA"> T  </i>
   </separator>
   <separator name="electronic projectors" >
    <i type="logical" name="LREAL"> F  </i>
    <v name="ROPT">      0.00000000      0.00000000      0.00000000</v>
    <i type="int" name="LMAXPAW">  -100</i>
    <i type="int" name="LMAXMIX">     2</i>
    <i type="logical" name="NLSPLINE"> F  </i>
   </separator>
   <separator name="electronic startup" >
    <i type="int" name="ISTART">     0</i>
    <i type="int" name="ICHARG">     2</i>
    <i type="int" name="INIWAV">     1</i>
   </separator>
   <separator name="electronic spin" >
    <i type="int" name="ISPIN">     1</i>
    <i type="logical" name="LNONCOLLINEAR"> F  </i>
    <v name="MAGMOM">      1.00000000      1.00000000      1.00000000      1.00000000      1.00000000      1.00000000      1.00000000      1.00000000      1.00000000      1.00000000      1.00000000      1.00000000      1.00000000      1.00000000      1.00000000      1.00000000</v>
    <i name="NUPDOWN">     -1.00000000</i>
    <i type="logical" name="LSORBIT"> F  </i>
    <v name="SAXIS">      0.00000000      0.00000000      1.00000000</v>
    <i type="logical" name="LSPIRAL"> F  </i>
    <v name="QSPIRAL">      0.00000000      0.00000000      0.00000000</v>
    <i type="logical" name="LZEROZ"> F  </i>
   </separator>
   <separator name="electronic exchange-correlation" >
    <i type="logical" name="LASPH"> F  </i>
    <i type="logical" name="LMETAGGA"> F  </i>
   </separator>
   <separator name="electronic convergence" >
    <i type="int" name="NELM">    60</i>
    <i type="int" name="NELMDL">    -5</i>
    <i type="int" name="NELMIN">     2</i>
    <i name="ENINI">    350.00000000</i>
    <separator name="electronic convergence detail" >
     <i type="logical" name="LDIAG"> T  </i>
     <i type="logical" name="LSUBROT"> F  </i>
     <i name="WEIMIN">      0.00000000</i>
     <i name="EBREAK">      0.00000003</i>
     <i name="DEPER">      0.30000000</i>
     <i type="int" name="NRMM">     4</i>
     <i name="TIME">      0.40000000</i>
    </separator>
   </separator>
   <separator name="electronic mixer" >
    <i name="AMIX">      0.40000000</i>
    <i name="BMIX">      1.00000000</i>
    <i name="AMIN">      0.10000000</i>
    <i name="AMIX_MAG">      1.60000000</i>
    <i name="BMIX_MAG">      1.00000000</i>
    <separator name="electronic mixer details" >
     <i type="int" name="IMIX">     4</i>
     <i type="logical" name="MIXFIRST"> F  </i>
     <i type="int" name="MAXMIX">   -45</i>
     <i name="WC">    100.00000000</i>
     <i type="int" name="INIMIX">     1</i>
     <i type="int" name="MIXPRE">     1</i>
     <i type="int" name="MREMOVE">     5</i>
    </separator>
   </separator>
   <separator name="electronic dipolcorrection" >
    <i type="logical" name="LDIPOL"> F  </i>
    <i type="logical" name="LMONO"> F  </i>
    <i type="int" name="IDIPOL">     3</i>
    <i name="EPSILON">      1.00000000</i>
    <v name="DIPOL">   -100.00000000   -100.00000000   -100.00000000</v>
    <i name="EFIELD">      0.00000000</i>
   </separator>
  </separator>
  <separator name="grids" >
   <i type="int" name="NGX">    28</i>
   <i type="int" name="NGY">    28</i>
   <i type="int" name="NGZ">   144</i>
   <i type="int" name="NGXF">    56</i>
   <i type="int" name="NGYF">    56</i>
   <i type="int" name="NGZF">   288</i>
   <i type="logical" name="ADDGRID"> F  </i>
  </separator>
  <separator name="ionic" >
   <i type="int" name="NSW">     0</i>
   <i type="int" name="IBRION">    -1</i>
   <i type="int" name="MDALGO">     0</i>
   <i type="int" name="ISIF">     2</i>
   <i name="PSTRESS">      0.00000000</i>
   <i name="EDIFFG">     -0.05000000</i>
   <i type="int" name="NFREE">     1</i>
   <i name="POTIM">      0.50000000</i>
   <i name="SMASS">     -3.00000000</i>
   <i name="SCALEE">      1.00000000</i>
  </separator>
  <separator name="ionic md" >
   <i name="TEBEG">      0.00010000</i>
   <i name="TEEND">      0.00010000</i>
   <i type="int" name="NBLOCK">     1</i>
   <i type="int" name="KBLOCK">     1</i>
   <i type="int" name="NPACO">   256</i>
   <i name="APACO">     16.00000000</i>
  </separator>
  <separator name="symmetry" >
   <i type="int" name="ISYM">     2</i>
   <i name="SYMPREC">      0.00001000</i>
  </separator>
  <separator name="dos" >
   <i type="int" name="LORBIT">     0</i>
   <v name="RWIGS">     -1.00000000     -1.00000000     -1.00000000</v>
   <i type="int" name="NEDOS">   301</i>
   <i name="EMIN">     10.00000000</i>
   <i name="EMAX">    -10.00000000</i>
   <i name="EFERMI">      0.00000000</i>
  </separator>
  <separator name="writing" >
   <i type="int" name="NWRITE">     2</i>
   <i type="logical" name="LWAVE"> F  </i>
   <i type="logical" name="LDOWNSAMPLE"> F  </i>
   <i type="logical" name="LCHARG"> F  </i>
   <i type="logical" name="LPARD"> F  </i>
   <i type="logical" name="LVTOT"> F  </i>
   <i type="logical" name="LVHAR"> F  </i>
   <i type="logical" name="LELF"> F  </i>
   <i type="logical" name="LOPTICS"> F  </i>
   <v name="STM">      0.00000000      0.00000000      0.00000000      0.00000000      0.00000000      0.00000000      0.00000000</v>
  </separator>
  <separator name="performance" >
   <i type="int" name="NPAR">    24</i>
   <i type="int" name="NSIM">     4</i>
   <i type="int" name="NBLK">    -1</i>
   <i type="logical" name="LPLANE"> T  </i>
   <i type="logical" name="LSCALAPACK"> T  </i>
   <i type="logical" name="LSCAAWARE"> F  </i>
   <i type="logical" name="LSCALU"> F  </i>
   <i type="logical" name="LASYNC"> F  </i>
   <i type="logical" name="LORBITALREAL"> F  </i>
  </separator>
  <separator name="miscellaneous" >
   <i type="int" name="IDIOT">     3</i>
   <i type="int" name="ISPECIAL">     0</i>
   <i type="logical" name="LMUSIC"> F  </i>
   <v name="POMASS">    192.22000000    195.08000000    196.96600000</v>
   <v name="DARWINR">      0.00000000      0.00000000      0.00000000</v>
   <v name="DARWINV">      1.00000000      1.00000000      1.00000000</v>
   <i type="logical" name="LCORR"> T  </i>
  </separator>
  <i type="logical" name="GGA_COMPAT"> T  </i>
  <i type="logical" name="LBERRY"> F  </i>
  <i type="int" name="ICORELEVEL">     0</i>
  <i type="logical" name="LDAU"> F  </i>
  <i type="int" name="I_CONSTRAINED_M">     0</i>
  <separator name="electronic exchange-correlation" >
   <i type="string" name="GGA">PE</i>
   <i type="int" name="VOSKOWN">     0</i>
   <i type="logical" name="LHFCALC"> F  </i>
   <i type="string" name="PRECFOCK"></i>
   <i type="logical" name="LSYMGRAD"> F  </i>
   <i type="logical" name="LHFONE"> F  </i>
   <i type="logical" name="LRHFCALC"> F  </i>
   <i type="logical" name="LTHOMAS"> F  </i>
   <i type="logical" name="LMODELHF"> F  </i>
   <i name="ENCUT4O">     -1.00000000</i>
   <i type="int" name="EXXOEP">     0</i>
   <i type="int" name="FOURORBIT">     0</i>
   <i name="AEXX">      0.00000000</i>
   <i name="HFALPHA">      0.00000000</i>
   <i name="MCALPHA">      0.00000000</i>
   <i name="ALDAX">      1.00000000</i>
   <i name="AGGAX">      1.00000000</i>
   <i name="ALDAC">      1.00000000</i>
   <i name="AGGAC">      1.00000000</i>
   <i type="int" name="NKREDX">     1</i>
   <i type="int" name="NKREDY">     1</i>
   <i type="int" name="NKREDZ">     1</i>
   <i type="logical" name="SHIFTRED"> F  </i>
   <i type="logical" name="ODDONLY"> F  </i>
   <i type="logical" name="EVENONLY"> F  </i>
   <i type="int" name="LMAXFOCK">     0</i>
   <i type="int" name="NMAXFOCKAE">     0</i>
   <i type="logical" name="LFOCKAEDFT"> F  </i>
   <i name="HFSCREEN">      0.00000000</i>
   <i name="HFSCREENC">      0.00000000</i>
   <i type="int" name="NBANDSGWLOW">     0</i>
  </separator>
  <separator name="vdW DFT" >
   <i type="logical" name="LUSE_VDW"> F  </i>
   <i name="Zab_VDW">     -0.84910000</i>
   <i name="PARAM1">      0.12340000</i>
   <i name="PARAM2">      1.00000000</i>
   <i name="PARAM3">      0.00000000</i>
  </separator>
  <separator name="model GW" >
   <i type="int" name="MODEL_GW">     0</i>
   <i name="MODEL_EPS0">     30.90479278</i>
   <i name="MODEL_ALPHA">      1.00000000</i>
  </separator>
  <separator name="linear response parameters" >
   <i type="logical" name="LEPSILON"> F  </i>
   <i type="logical" name="LRPA"> F  </i>
   <i type="logical" name="LNABLA"> F  </i>
   <i type="logical" name="LVEL"> F  </i>
   <i type="int" name="KINTER">     0</i>
   <i name="CSHIFT">      0.10000000</i>
   <i name="OMEGAMAX">     -1.00000000</i>
   <i name="DEG_THRESHOLD">      0.00200000</i>
   <i name="RTIME">     -0.10000000</i>
   <i name="WPLASMAI">      0.00000000</i>
   <v name="DFIELD">      0.00000000      0.00000000      0.00000000</v>
   <v name="WPLASMA">      0.00000000      0.00000000      0.00000000      0.00000000      0.00000000      0.00000000      0.00000000      0.00000000      0.00000000</v>
  </separator>
  <separator name="orbital magnetization" >
   <i type="logical" name="NUCIND"> F  </i>
   <v name="MAGPOS">      0.00000000      0.00000000      0.00000000</v>
   <i type="logical" name="LNICSALL"> T  </i>
   <i type="logical" name="ORBITALMAG"> F  </i>
   <i type="logical" name="LMAGBLOCH"> F  </i>
   <i type="logical" name="LCHIMAG"> F  </i>
   <i type="logical" name="LGAUGE"> T  </i>
   <i type="int" name="MAGATOM">     0</i>
   <v name="MAGDIPOL">      0.00000000      0.00000000      0.00000000</v>
   <v name="AVECCONST">      0.00000000      0.00000000      0.00000000</v>
  </separator>
  <separator name="response functions" >
   <i type="logical" name="LADDER"> F  </i>
   <i type="logical" name="LRPAFORCE"> F  </i>
   <i type="logical" name="LFXC"> F  </i>
   <i type="logical" name="LHARTREE"> T  </i>
   <i type="int" name="IBSE">     0</i>
   <v type="int" name="KPOINT">    -1     0     0     0</v>
   <i type="logical" name="LTCTE"> F  </i>
   <i type="logical" name="LTETE"> F  </i>
   <i type="logical" name="LTRIPLET"> F  </i>
   <i type="logical" name="LFXCEPS"> F  </i>
   <i type="logical" name="LFXHEG"> F  </i>
   <i type="int" name="NATURALO">     2</i>
   <i type="logical" name="L2ORDER"> F  </i>
   <i type="logical" name="LMP2LT"> F  </i>
   <i type="logical" name="LUSEW"> F  </i>
   <i name="ENCUTGW">     -2.00000000</i>
   <i name="ENCUTGWSOFT">     -2.00000000</i>
   <i name="ENCUTLF">     -1.00000000</i>
   <i type="int" name="LMAXMP2">    -1</i>
   <i name="SCISSOR">      0.00000000</i>
   <i type="int" name="NOMEGA">     0</i>
   <i type="int" name="NOMEGAR">     0</i>
   <i type="int" name="NBANDSGW">    -1</i>
   <i type="int" name="NBANDSO">    -1</i>
   <i type="int" name="NBANDSV">    -1</i>
   <i type="int" name="NELM">     1</i>
   <i type="int" name="NELMHF">     1</i>
   <i type="int" name="DIM">     3</i>
   <i type="int" name="ANTIRES">     0</i>
   <i name="OMEGAMAX">    -30.00000000</i>
   <i name="OMEGAMIN">    -30.00000000</i>
   <i name="OMEGATL">   -200.00000000</i>
   <i type="int" name="OMEGAGRID">   140</i>
   <i name="CSHIFT">     -0.10000000</i>
   <i type="logical" name="SELFENERGY"> F  </i>
   <i type="logical" name="LSPECTRAL"> F  </i>
   <i type="logical" name="LSPECTRALGW"> F  </i>
   <i type="logical" name="LSINGLES"> F  </i>
   <i type="logical" name="LFERMIGW"> F  </i>
   <i type="logical" name="ODDONLYGW"> F  </i>
   <i type="logical" name="EVENONLYGW"> F  </i>
   <i type="int" name="NKREDLFX">     1</i>
   <i type="int" name="NKREDLFY">     1</i>
   <i type="int" name="NKREDLFZ">     1</i>
   <i type="int" name="MAXMEM">  2800</i>
   <i type="int" name="TELESCOPE">     0</i>
   <i type="int" name="TAUPAR">     1</i>
   <i type="int" name="OMEGAPAR">    -1</i>
   <i name="LAMBDA">      1.00000000</i>
  </separator>
  <separator name="External order field" >
   <i name="OFIELD_KAPPA">      0.00000000</i>
   <v name="OFIELD_K">      0.00000000      0.00000000      0.00000000</v>
   <i name="OFIELD_Q6_NEAR">      0.00000000</i>
   <i name="OFIELD_Q6_FAR">      0.00000000</i>
   <i name="OFIELD_A">      0.00000000</i>
  </separator>
 </parameters>
 <atominfo>
  <atoms>      16 </atoms>
  <types>       3 </types>
  <array name="atoms" >
   <dimension dim="1">ion</dimension>
   <field type="string">element</field>
   <field type="int">atomtype</field>
   <set>
    <rc><c>Ir</c><c>   1</c></rc>
    <rc><c>Pt</c><c>   2</c></rc>
    <rc><c>Pt</c><c>   2</c></rc>
    <rc><c>Pt</c><c>   2</c></rc>
    <rc><c>Pt</c><c>   2</c></rc>
    <rc><c>Pt</c><c>   2</c></rc>
    <rc><c>Pt</c><c>   2</c></rc>
    <rc><c>Pt</c><c>   2</c></rc>
    <rc><c>Pt</c><c>   2</c></rc>
    <rc><c>Pt</c><c>   2</c></rc>
    <rc><c>Pt</c><c>   2</c></rc>
    <rc><c>Pt</c><c>   2</c></rc>
    <rc><c>Pt</c><c>   2</c></rc>
    <rc><c>Pt</c><c>   2</c></rc>
    <rc><c>Pt</c><c>   2</c></rc>
    <rc><c>Au</c><c>   3</c></rc>
   </set>
  </array>
  <array name="atomtypes" >
   <dimension dim="1">type</dimension>
   <field type="int">atomspertype</field>
   <field type="string">element</field>
   <field>mass</field>
   <field>valence</field>
   <field type="string">pseudopotential</field>
   <set>
    <rc><c>   1</c><c>Ir</c><c>    192.22000000</c><c>      9.00000000</c><c>  PAW_PBE Ir 06Sep2000                  </c></rc>
    <rc><c>  14</c><c>Pt</c><c>    195.08000000</c><c>     10.00000000</c><c>  PAW_PBE Pt 04Feb2005                  </c></rc>
    <rc><c>   1</c><c>Au</c><c>    196.96600000</c><c>     11.00000000</c><c>  PAW_PBE Au 04Oct2007                  </c></rc>
   </set>
  </array>
 </atominfo>
 <structure name="initialpos" >
  <crystal>
   <varray name="basis" >
    <v>       5.55785930       0.00000000       0.00000000 </v>
    <v>       2.77892965       4.81324734       0.00000000 </v>
    <v>       0.00000000       0.00000000      30.80695967 </v>
   </varray>
   <i name="volume">    824.12780743 </i>
   <varray name="rec_basis" >
    <v>       0.17992539      -0.10387997       0.00000000 </v>
    <v>       0.00000000       0.20775994       0.00000000 </v>
    <v>       0.00000000       0.00000000       0.03246020 </v>
   </varray>
  </crystal>
  <varray name="positions" >
   <v>       0.00000000       0.00000000       0.38952237 </v>
   <v>       0.50000000       0.00000000       0.38952237 </v>
   <v>       0.00000000       0.50000000       0.38952237 </v>
   <v>       0.50000000       0.50000000       0.38952237 </v>
   <v>       0.16666667       0.16666667       0.46468540 </v>
   <v>       0.66666667       0.16666667       0.46468540 </v>
   <v>       0.16666667       0.66666667       0.46468540 </v>
   <v>       0.66666667       0.66666667       0.46468540 </v>
   <v>       0.83333333       0.33333333       0.53920296 </v>
   <v>       0.33333333       0.33333333       0.53920296 </v>
   <v>       0.83333333       0.83333333       0.53920296 </v>
   <v>       0.33333333       0.83333333       0.53920296 </v>
   <v>       0.50000000       0.00000000       0.61486043 </v>
   <v>       0.00000000       0.50000000       0.61486043 </v>
   <v>       0.50000000       0.50000000       0.61486043 </v>
   <v>       0.00000000       0.00000000       0.61486043 </v>
  </varray>
  <varray name="selective"  type="logical" >
   <v type="logical" >  F  F  F </v>
   <v type="logical" >  F  F  F </v>
   <v type="logical" >  F  F  F </v>
   <v type="logical" >  F  F  F </v>
   <v type="logical" >  T  T  T </v>
   <v type="logical" >  T  T  T </v>
   <v type="logical" >  T  T  T </v>
   <v type="logical" >  T  T  T </v>
   <v type="logical" >  T  T  T </v>
   <v type="logical" >  T  T  T </v>
   <v type="logical" >  T  T  T </v>
   <v type="logical" >  T  T  T </v>
   <v type="logical" >  T  T  T </v>
   <v type="logical" >  T  T  T </v>
   <v type="logical" >  T  T  T </v>
   <v type="logical" >  T  T  T </v>
  </varray>
  <nose>
   <v>      -3.00000000       0.00000000       0.00010000       0.00010000 </v>
  </nose>
 </structure>
 <calculation>
  <scstep>
   <time name="dav">    3.50    3.50</time>
   <time name="total">    3.53    3.53</time>
   <energy>
    <i name="alphaZ">    303.52543553 </i>
    <i name="ewald">  98433.55813087 </i>
    <i name="hartreedc">-110505.04860775 </i>
    <i name="XCdc">     46.26589294 </i>
    <i name="pawpsdc">  11171.21661038 </i>
    <i name="pawaedc"> -10711.84633960 </i>
    <i name="eentropy">     -0.01329833 </i>
    <i name="bandstr">    544.27403132 </i>
    <i name="atom">  11693.69420960 </i>
    <i name="e_fr_energy">    975.62606497 </i>
    <i name="e_wo_entrp">    975.63936330 </i>
    <i name="e_0_energy">    975.63049774 </i>
   </energy>
  </scstep>
  <scstep>
   <time name="dav">    4.91    4.91</time>
   <time name="total">    4.91    4.91</time>
   <energy>
    <i name="e_fr_energy">    -38.35759287 </i>
    <i name="e_wo_entrp">    -38.35159079 </i>
    <i name="e_0_energy">    -38.35559218 </i>
   </energy>
  </scstep>
  <scstep>
   <time name="dav">    4.29    4.29</time>
   <time name="total">    4.29    4.29</time>
   <energy>
    <i name="e_fr_energy">    -96.97818633 </i>
    <i name="e_wo_entrp">    -96.95380719 </i>
    <i name="e_0_energy">    -96.97005995 </i>
   </energy>
  </scstep>
  <scstep>
   <time name="dav">    4.69    4.69</time>
   <time name="total">    4.69    4.69</time>
   <energy>
    <i name="e_fr_energy">    -98.24549394 </i>
    <i name="e_wo_entrp">    -98.21876791 </i>
    <i name="e_0_energy">    -98.23658526 </i>
   </energy>
  </scstep>
  <scstep>
   <time name="dav">    5.05    5.05</time>
   <time name="total">    5.18    5.18</time>
   <energy>
    <i name="e_fr_energy">    -98.27899880 </i>
    <i name="e_wo_entrp">    -98.25224066 </i>
    <i name="e_0_energy">    -98.27007942 </i>
   </energy>
  </scstep>
  <scstep>
   <time name="dav">    4.01    4.01</time>
   <time name="total">    4.16    4.16</time>
   <energy>
    <i name="e_fr_energy">    -94.22941651 </i>
    <i name="e_wo_entrp">    -94.21339725 </i>
    <i name="e_0_energy">    -94.22407676 </i>
   </energy>
  </scstep>
  <scstep>
   <time name="dav">    4.28    4.28</time>
   <time name="total">    4.43    4.44</time>
   <energy>
    <i name="e_fr_energy">   -118.59553823 </i>
    <i name="e_wo_entrp">   -118.59800868 </i>
    <i name="e_0_energy">   -118.59636171 </i>
   </energy>
  </scstep>
  <scstep>
   <time name="dav">    5.00    5.00</time>
   <time name="total">    5.15    5.15</time>
   <energy>
    <i name="e_fr_energy">    -94.56554815 </i>
    <i name="e_wo_entrp">    -94.54645279 </i>
    <i name="e_0_energy">    -94.55918303 </i>
   </energy>
  </scstep>
  <scstep>
   <time name="dav">    4.23    4.23</time>
   <time name="total">    4.38    4.38</time>
   <energy>
    <i name="e_fr_energy">    -99.54636592 </i>
    <i name="e_wo_entrp">    -99.54499165 </i>
    <i name="e_0_energy">    -99.54590783 </i>
   </energy>
  </scstep>
  <scstep>
   <time name="dav">    5.00    5.00</time>
   <time name="total">    5.15    5.16</time>
   <energy>
    <i name="e_fr_energy">    -97.41708305 </i>
    <i name="e_wo_entrp">    -97.45505485 </i>
    <i name="e_0_energy">    -97.42974032 </i>
   </energy>
  </scstep>
  <scstep>
   <time name="dav">    4.21    4.21</time>
   <time name="total">    4.36    4.36</time>
   <energy>
    <i name="e_fr_energy">    -92.60004647 </i>
    <i name="e_wo_entrp">    -92.57414134 </i>
    <i name="e_0_energy">    -92.59141143 </i>
   </energy>
  </scstep>
  <scstep>
   <time name="dav">    4.88    4.88</time>
   <time name="total">    5.03    5.03</time>
   <energy>
    <i name="e_fr_energy">    -92.22844678 </i>
    <i name="e_wo_entrp">    -92.17203523 </i>
    <i name="e_0_energy">    -92.20964293 </i>
   </energy>
  </scstep>
  <scstep>
   <time name="dav">    5.10    5.10</time>
   <time name="total">    5.25    5.25</time>
   <energy>
    <i name="e_fr_energy">    -92.06188979 </i>
    <i name="e_wo_entrp">    -92.02841649 </i>
    <i name="e_0_energy">    -92.05073203 </i>
   </energy>
  </scstep>
  <scstep>
   <time name="dav">    4.15    4.15</time>
   <time name="total">    4.31    4.31</time>
   <energy>
    <i name="e_fr_energy">    -92.05594666 </i>
    <i name="e_wo_entrp">    -92.01961575 </i>
    <i name="e_0_energy">    -92.04383636 </i>
   </energy>
  </scstep>
  <scstep>
   <time name="dav">    4.13    4.13</time>
   <time name="total">    4.29    4.29</time>
   <energy>
    <i name="e_fr_energy">    -92.04816387 </i>
    <i name="e_wo_entrp">    -92.01295112 </i>
    <i name="e_0_energy">    -92.03642629 </i>
   </energy>
  </scstep>
  <scstep>
   <time name="dav">    4.03    4.03</time>
   <time name="total">    4.19    4.19</time>
   <energy>
    <i name="e_fr_energy">    -92.04177197 </i>
    <i name="e_wo_entrp">    -92.00304060 </i>
    <i name="e_0_energy">    -92.02886151 </i>
   </energy>
  </scstep>
  <scstep>
   <time name="dav">    4.44    4.44</time>
   <time name="total">    4.59    4.59</time>
   <energy>
    <i name="e_fr_energy">    -92.03328122 </i>
    <i name="e_wo_entrp">    -91.99574248 </i>
    <i name="e_0_energy">    -92.02076831 </i>
   </energy>
  </scstep>
  <scstep>
   <time name="dav">    4.27    4.27</time>
   <time name="total">    4.42    4.42</time>
   <energy>
    <i name="e_fr_energy">    -92.02742524 </i>
    <i name="e_wo_entrp">    -91.99142626 </i>
    <i name="e_0_energy">    -92.01542558 </i>
   </energy>
  </scstep>
  <scstep>
   <time name="dav">    4.08    4.08</time>
   <time name="total">    4.23    4.24</time>
   <energy>
    <i name="e_fr_energy">    -92.02671781 </i>
    <i name="e_wo_entrp">    -91.99048087 </i>
    <i name="e_0_energy">    -92.01463883 </i>
   </energy>
  </scstep>
  <scstep>
   <time name="dav">    4.90    4.91</time>
   <time name="total">    5.06    5.06</time>
   <energy>
    <i name="e_fr_energy">    -92.02697228 </i>
    <i name="e_wo_entrp">    -91.99056198 </i>
    <i name="e_0_energy">    -92.01483552 </i>
   </energy>
  </scstep>
  <scstep>
   <time name="dav">    5.13    5.13</time>
   <time name="total">    5.28    5.29</time>
   <energy>
    <i name="e_fr_energy">    -92.02683333 </i>
    <i name="e_wo_entrp">    -91.99053222 </i>
    <i name="e_0_energy">    -92.01473296 </i>
   </energy>
  </scstep>
  <scstep>
   <time name="dav">    4.09    4.09</time>
   <time name="total">    4.24    4.24</time>
   <energy>
    <i name="e_fr_energy">    -92.02671630 </i>
    <i name="e_wo_entrp">    -91.99034696 </i>
    <i name="e_0_energy">    -92.01459319 </i>
   </energy>
  </scstep>
  <scstep>
   <time name="dav">    3.57    3.57</time>
   <time name="total">    3.72    3.72</time>
   <energy>
    <i name="e_fr_energy">    -92.02666928 </i>
    <i name="e_wo_entrp">    -91.99035236 </i>
    <i name="e_0_energy">    -92.01456364 </i>
   </energy>
  </scstep>
  <scstep>
   <time name="dav">    2.96    2.96</time>
   <time name="total">    2.98    2.98</time>
   <energy>
    <i name="alphaZ">    303.52543553 </i>
    <i name="ewald">  98433.55813087 </i>
    <i name="hartreedc">-110338.28991782 </i>
    <i name="XCdc">     40.61310040 </i>
    <i name="pawpsdc">  14192.50888206 </i>
    <i name="pawaedc"> -13777.46023123 </i>
    <i name="eentropy">     -0.03626654 </i>
    <i name="bandstr">   -640.14001327 </i>
    <i name="atom">  11693.69420960 </i>
    <i name="e_fr_energy">    -92.02667040 </i>
    <i name="e_wo_entrp">    -91.99040387 </i>
    <i name="e_0_energy">    -92.01458156 </i>
   </energy>
  </scstep>
  <dipole>
   <v name="dipole">      0.00000000       0.00000000      -0.01839235 </v>
   <i name="Tr[quadrupol]">   -951.29875920 </i>
   <i name="Echarged">      0.00000000 </i>
   <i name="Edipol_quadrupol">      0.00000000 </i>
   <i name="Eion">      0.00000000 </i>
  </dipole>
  <structure>
   <crystal>
    <varray name="basis" >
     <v>       5.55785930       0.00000000       0.00000000 </v>
     <v>       2.77892965       4.81324734       0.00000000 </v>
     <v>       0.00000000       0.00000000      30.80695967 </v>
    </varray>
    <i name="volume">    824.12780743 </i>
    <varray name="rec_basis" >
     <v>       0.17992539      -0.10387997       0.00000000 </v>
     <v>       0.00000000       0.20775994       0.00000000 </v>
     <v>       0.00000000       0.00000000       0.03246020 </v>
    </varray>
   </crystal>
   <varray name="positions" >
    <v>       0.00000000       0.00000000       0.38952237 </v>
    <v>       0.50000000       0.00000000       0.38952237 </v>
    <v>       0.00000000       0.50000000       0.38952237 </v>
    <v>       0.50000000       0.50000000       0.38952237 </v>
    <v>       0.16666667       0.16666667       0.46468540 </v>
    <v>       0.66666667       0.16666667       0.46468540 </v>
    <v>       0.16666667       0.66666667       0.46468540 </v>
    <v>       0.66666667       0.66666667       0.46468540 </v>
    <v>       0.83333333       0.33333333       0.53920296 </v>
    <v>       0.33333333       0.33333333       0.53920296 </v>
    <v>       0.83333333       0.83333333       0.53920296 </v>
    <v>       0.33333333       0.83333333       0.53920296 </v>
    <v>       0.50000000       0.00000000       0.61486043 </v>
    <v>       0.00000000       0.50000000       0.61486043 </v>
    <v>       0.50000000       0.50000000       0.61486043 </v>
    <v>       0.00000000       0.00000000       0.61486043 </v>
   </varray>
  </structure>
  <varray name="forces" >
   <v>      -0.00000000       0.00000000       1.10470114 </v>
   <v>      -0.00000000       0.05979787      -0.17739788 </v>
   <v>       0.05178647      -0.02989893      -0.17739788 </v>
   <v>      -0.05178647      -0.02989893      -0.17739788 </v>
   <v>      -0.15501681      -0.08949900      -0.22432028 </v>
   <v>       0.15501681      -0.08949900      -0.22432028 </v>
   <v>      -0.00000000       0.17899800      -0.22432028 </v>
   <v>      -0.00000000       0.00000000      -0.12198440 </v>
   <v>      -0.00000000       0.14155138      -0.10354704 </v>
   <v>      -0.00000000       0.00000000      -0.09666590 </v>
   <v>      -0.12258709      -0.07077569      -0.10354704 </v>
   <v>       0.12258709      -0.07077569      -0.10354704 </v>
   <v>      -0.00000000       0.02399031      -0.14244904 </v>
   <v>       0.02077622      -0.01199515      -0.14244904 </v>
   <v>      -0.02077622      -0.01199515      -0.14244904 </v>
   <v>      -0.00000000       0.00000000       1.05709187 </v>
  </varray>
  <varray name="stress" >
   <v>     -21.83098432       0.00000000       0.00000000 </v>
   <v>       0.00000000     -21.83098432      -0.00000000 </v>
   <v>       0.00000000       0.00000000      -1.21963208 </v>
  </varray>
  <energy>
   <i name="e_fr_energy">    -92.02663327 </i>
   <i name="e_wo_entrp">    -92.01454442 </i>
   <i name="e_0_energy">     -0.03626654 </i>
  </energy>
  <time name="totalsc">  112.71  112.76</time>
  <eigenvalues>
   <array>
    <dimension dim="1">band</dimension>
    <dimension dim="2">kpoint</dimension>
    <dimension dim="3">spin</dimension>
    <field>eigene</field>
    <field>occ</field>
    <set>
     <set comment="spin 1">
      <set comment="kpoint 1">
       <r>  -10.1800    1.0000 </r>
       <r>   -8.9103    1.0000 </r>
       <r>   -7.8472    1.0000 </r>
       <r>   -7.7274    1.0000 </r>
       <r>   -7.4500    1.0000 </r>
       <r>   -7.4271    1.0000 </r>
       <r>   -7.4227    1.0000 </r>
       <r>   -7.2974    1.0000 </r>
       <r>   -7.2849    1.0000 </r>
       <r>   -7.2731    1.0000 </r>
       <r>   -6.8373    1.0000 </r>
       <r>   -6.8165    1.0000 </r>
       <r>   -6.8129    1.0000 </r>
       <r>   -6.7868    1.0000 </r>
       <r>   -6.7752    1.0000 </r>
       <r>   -6.5931    1.0000 </r>
       <r>   -6.5359    1.0000 </r>
       <r>   -6.5205    1.0000 </r>
       <r>   -6.4854    1.0000 </r>
       <r>   -5.7839    1.0000 </r>
       <r>   -5.7823    1.0000 </r>
       <r>   -5.6840    1.0000 </r>
       <r>   -4.9159    1.0000 </r>
       <r>   -4.9087    1.0000 </r>
       <r>   -4.8023    1.0000 </r>
       <r>   -4.6713    1.0000 </r>
       <r>   -4.6511    1.0000 </r>
       <r>   -4.6485    1.0000 </r>
       <r>   -4.6076    1.0000 </r>
       <r>   -4.5167    1.0000 </r>
       <r>   -4.3620    1.0000 </r>
       <r>   -4.3168    1.0000 </r>
       <r>   -4.1980    1.0000 </r>
       <r>   -4.1853    1.0000 </r>
       <r>   -4.0434    1.0000 </r>
       <r>   -4.0178    1.0000 </r>
       <r>   -3.9749    1.0000 </r>
       <r>   -3.9745    1.0000 </r>
       <r>   -3.9433    1.0000 </r>
       <r>   -3.8079    1.0000 </r>
       <r>   -3.6991    1.0000 </r>
       <r>   -3.6769    1.0000 </r>
       <r>   -3.4994    1.0000 </r>
       <r>   -3.4518    1.0000 </r>
       <r>   -3.4511    1.0000 </r>
       <r>   -3.1827    1.0000 </r>
       <r>   -3.1508    1.0000 </r>
       <r>   -2.9218    1.0000 </r>
       <r>   -2.8728    1.0000 </r>
       <r>   -2.7577    1.0000 </r>
       <r>   -2.7245    1.0000 </r>
       <r>   -2.3449    1.0000 </r>
       <r>   -2.3384    1.0000 </r>
       <r>   -2.0771    1.0000 </r>
       <r>   -2.0621    1.0000 </r>
       <r>   -1.8546    1.0000 </r>
       <r>   -1.8270    1.0000 </r>
       <r>   -1.7285    1.0000 </r>
       <r>   -1.7209    1.0000 </r>
       <r>   -1.6016    1.0000 </r>
       <r>   -1.5970    1.0000 </r>
       <r>   -1.4716    1.0000 </r>
       <r>   -1.1768    1.0120 </r>
       <r>   -1.1495    1.0173 </r>
       <r>   -1.1226    1.0233 </r>
       <r>   -1.1003    1.0283 </r>
       <r>   -1.0440    1.0354 </r>
       <r>   -0.9838    1.0117 </r>
       <r>   -0.9451    0.9628 </r>
       <r>   -0.9211    0.9148 </r>
       <r>   -0.8137    0.5435 </r>
       <r>   -0.7880    0.4349 </r>
       <r>   -0.7391    0.2426 </r>
       <r>   -0.7281    0.2050 </r>
       <r>   -0.7036    0.1302 </r>
       <r>   -0.6831    0.0791 </r>
       <r>   -0.6538    0.0244 </r>
       <r>   -0.5244   -0.0319 </r>
       <r>   -0.5095   -0.0290 </r>
       <r>   -0.4796   -0.0222 </r>
       <r>   -0.3415   -0.0026 </r>
       <r>   -0.1828   -0.0001 </r>
       <r>   -0.1038   -0.0000 </r>
       <r>   -0.0104   -0.0000 </r>
       <r>    0.0390   -0.0000 </r>
       <r>    0.0872   -0.0000 </r>
       <r>    0.3820   -0.0000 </r>
       <r>    0.4140   -0.0000 </r>
       <r>    1.2087   -0.0000 </r>
       <r>    1.4948   -0.0000 </r>
       <r>    1.6232   -0.0000 </r>
       <r>    1.6464   -0.0000 </r>
       <r>    1.7767   -0.0000 </r>
       <r>    1.7859   -0.0000 </r>
       <r>    2.5929   -0.0000 </r>
       <r>    2.5931   -0.0000 </r>
      </set>
      <set comment="kpoint 2">
       <r>   -9.9760    1.0000 </r>
       <r>   -8.7087    1.0000 </r>
       <r>   -7.6419    1.0000 </r>
       <r>   -7.5337    1.0000 </r>
       <r>   -7.4319    1.0000 </r>
       <r>   -7.3541    1.0000 </r>
       <r>   -7.2364    1.0000 </r>
       <r>   -7.2157    1.0000 </r>
       <r>   -7.1672    1.0000 </r>
       <r>   -7.1004    1.0000 </r>
       <r>   -6.7417    1.0000 </r>
       <r>   -6.7239    1.0000 </r>
       <r>   -6.7107    1.0000 </r>
       <r>   -6.7019    1.0000 </r>
       <r>   -6.6361    1.0000 </r>
       <r>   -6.4760    1.0000 </r>
       <r>   -6.4319    1.0000 </r>
       <r>   -6.3620    1.0000 </r>
       <r>   -6.3054    1.0000 </r>
       <r>   -5.7269    1.0000 </r>
       <r>   -5.7178    1.0000 </r>
       <r>   -5.6297    1.0000 </r>
       <r>   -4.9591    1.0000 </r>
       <r>   -4.9005    1.0000 </r>
       <r>   -4.8409    1.0000 </r>
       <r>   -4.7272    1.0000 </r>
       <r>   -4.6549    1.0000 </r>
       <r>   -4.5892    1.0000 </r>
       <r>   -4.5703    1.0000 </r>
       <r>   -4.5276    1.0000 </r>
       <r>   -4.4763    1.0000 </r>
       <r>   -4.2035    1.0000 </r>
       <r>   -4.1687    1.0000 </r>
       <r>   -4.1229    1.0000 </r>
       <r>   -4.0890    1.0000 </r>
       <r>   -4.0393    1.0000 </r>
       <r>   -3.9998    1.0000 </r>
       <r>   -3.9548    1.0000 </r>
       <r>   -3.9061    1.0000 </r>
       <r>   -3.8580    1.0000 </r>
       <r>   -3.7730    1.0000 </r>
       <r>   -3.6515    1.0000 </r>
       <r>   -3.6116    1.0000 </r>
       <r>   -3.5934    1.0000 </r>
       <r>   -3.5224    1.0000 </r>
       <r>   -3.4551    1.0000 </r>
       <r>   -3.3135    1.0000 </r>
       <r>   -3.1011    1.0000 </r>
       <r>   -2.9644    1.0000 </r>
       <r>   -2.7817    1.0000 </r>
       <r>   -2.6913    1.0000 </r>
       <r>   -2.4586    1.0000 </r>
       <r>   -2.4071    1.0000 </r>
       <r>   -2.3330    1.0000 </r>
       <r>   -2.1291    1.0000 </r>
       <r>   -2.0102    1.0000 </r>
       <r>   -1.9314    1.0000 </r>
       <r>   -1.9268    1.0000 </r>
       <r>   -1.8310    1.0000 </r>
       <r>   -1.8194    1.0000 </r>
       <r>   -1.7793    1.0000 </r>
       <r>   -1.7442    1.0000 </r>
       <r>   -1.6223    1.0000 </r>
       <r>   -1.5881    1.0000 </r>
       <r>   -1.5151    1.0000 </r>
       <r>   -1.4463    1.0000 </r>
       <r>   -1.2164    1.0065 </r>
       <r>   -1.1735    1.0126 </r>
       <r>   -1.1126    1.0256 </r>
       <r>   -1.0895    1.0306 </r>
       <r>   -1.0519    1.0354 </r>
       <r>   -1.0240    1.0328 </r>
       <r>   -0.9809    1.0091 </r>
       <r>   -0.9360    0.9463 </r>
       <r>   -0.8505    0.6931 </r>
       <r>   -0.8128    0.5395 </r>
       <r>   -0.7774    0.3909 </r>
       <r>   -0.7555    0.3035 </r>
       <r>   -0.7045    0.1329 </r>
       <r>   -0.6709    0.0539 </r>
       <r>   -0.5361   -0.0338 </r>
       <r>   -0.4645   -0.0188 </r>
       <r>   -0.3829   -0.0057 </r>
       <r>   -0.2831   -0.0007 </r>
       <r>   -0.1768   -0.0000 </r>
       <r>    0.1851   -0.0000 </r>
       <r>    0.2796   -0.0000 </r>
       <r>    0.8178   -0.0000 </r>
       <r>    0.8491   -0.0000 </r>
       <r>    1.1026   -0.0000 </r>
       <r>    1.2938   -0.0000 </r>
       <r>    1.6259   -0.0000 </r>
       <r>    2.1477   -0.0000 </r>
       <r>    2.5274   -0.0000 </r>
       <r>    3.0202   -0.0000 </r>
       <r>    3.3737   -0.0000 </r>
      </set>
      <set comment="kpoint 3">
       <r>   -9.5223    1.0000 </r>
       <r>   -8.2727    1.0000 </r>
       <r>   -7.5308    1.0000 </r>
       <r>   -7.2138    1.0000 </r>
       <r>   -7.1197    1.0000 </r>
       <r>   -7.1082    1.0000 </r>
       <r>   -7.0916    1.0000 </r>
       <r>   -6.8957    1.0000 </r>
       <r>   -6.8674    1.0000 </r>
       <r>   -6.7915    1.0000 </r>
       <r>   -6.6618    1.0000 </r>
       <r>   -6.5071    1.0000 </r>
       <r>   -6.4835    1.0000 </r>
       <r>   -6.4415    1.0000 </r>
       <r>   -6.3316    1.0000 </r>
       <r>   -6.2809    1.0000 </r>
       <r>   -6.1258    1.0000 </r>
       <r>   -6.0240    1.0000 </r>
       <r>   -5.9266    1.0000 </r>
       <r>   -5.5977    1.0000 </r>
       <r>   -5.5720    1.0000 </r>
       <r>   -5.5157    1.0000 </r>
       <r>   -5.0917    1.0000 </r>
       <r>   -5.0390    1.0000 </r>
       <r>   -4.9461    1.0000 </r>
       <r>   -4.8447    1.0000 </r>
       <r>   -4.7828    1.0000 </r>
       <r>   -4.7169    1.0000 </r>
       <r>   -4.5263    1.0000 </r>
       <r>   -4.4744    1.0000 </r>
       <r>   -4.4234    1.0000 </r>
       <r>   -4.2855    1.0000 </r>
       <r>   -4.2510    1.0000 </r>
       <r>   -4.2279    1.0000 </r>
       <r>   -4.1227    1.0000 </r>
       <r>   -4.0785    1.0000 </r>
       <r>   -4.0271    1.0000 </r>
       <r>   -3.9193    1.0000 </r>
       <r>   -3.9070    1.0000 </r>
       <r>   -3.8643    1.0000 </r>
       <r>   -3.8096    1.0000 </r>
       <r>   -3.8002    1.0000 </r>
       <r>   -3.7768    1.0000 </r>
       <r>   -3.7508    1.0000 </r>
       <r>   -3.6368    1.0000 </r>
       <r>   -3.5357    1.0000 </r>
       <r>   -3.4485    1.0000 </r>
       <r>   -3.2353    1.0000 </r>
       <r>   -3.0588    1.0000 </r>
       <r>   -2.9969    1.0000 </r>
       <r>   -2.8831    1.0000 </r>
       <r>   -2.7941    1.0000 </r>
       <r>   -2.7054    1.0000 </r>
       <r>   -2.6926    1.0000 </r>
       <r>   -2.5814    1.0000 </r>
       <r>   -2.5553    1.0000 </r>
       <r>   -2.5120    1.0000 </r>
       <r>   -2.4777    1.0000 </r>
       <r>   -2.4129    1.0000 </r>
       <r>   -2.3237    1.0000 </r>
       <r>   -2.1640    1.0000 </r>
       <r>   -2.1190    1.0000 </r>
       <r>   -2.0118    1.0000 </r>
       <r>   -1.9496    1.0000 </r>
       <r>   -1.8746    1.0000 </r>
       <r>   -1.8050    1.0000 </r>
       <r>   -1.7044    1.0000 </r>
       <r>   -1.5746    1.0000 </r>
       <r>   -1.5625    1.0000 </r>
       <r>   -1.4961    1.0000 </r>
       <r>   -1.4722    1.0000 </r>
       <r>   -1.3981    1.0001 </r>
       <r>   -1.2571    1.0031 </r>
       <r>   -1.2365    1.0045 </r>
       <r>   -1.1476    1.0176 </r>
       <r>   -1.0912    1.0303 </r>
       <r>   -1.0539    1.0353 </r>
       <r>   -0.9796    1.0079 </r>
       <r>   -0.8724    0.7734 </r>
       <r>   -0.8374    0.6416 </r>
       <r>   -0.7964    0.4702 </r>
       <r>   -0.7124    0.1555 </r>
       <r>   -0.5945   -0.0292 </r>
       <r>   -0.5143   -0.0300 </r>
       <r>   -0.4949   -0.0257 </r>
       <r>    0.3149   -0.0000 </r>
       <r>    0.3768   -0.0000 </r>
       <r>    0.5551   -0.0000 </r>
       <r>    0.9397   -0.0000 </r>
       <r>    1.7213   -0.0000 </r>
       <r>    1.8888   -0.0000 </r>
       <r>    1.9257   -0.0000 </r>
       <r>    2.3089   -0.0000 </r>
       <r>    2.6723   -0.0000 </r>
       <r>    3.2355   -0.0000 </r>
       <r>    3.9187   -0.0000 </r>
      </set>
      <set comment="kpoint 4">
       <r>   -8.8829    1.0000 </r>
       <r>   -7.8975    1.0000 </r>
       <r>   -7.7105    1.0000 </r>
       <r>   -7.1347    1.0000 </r>
       <r>   -6.7721    1.0000 </r>
       <r>   -6.7592    1.0000 </r>
       <r>   -6.6042    1.0000 </r>
       <r>   -6.5536    1.0000 </r>
       <r>   -6.5427    1.0000 </r>
       <r>   -6.5343    1.0000 </r>
       <r>   -6.4748    1.0000 </r>
       <r>   -6.2338    1.0000 </r>
       <r>   -6.1723    1.0000 </r>
       <r>   -6.0664    1.0000 </r>
       <r>   -6.0498    1.0000 </r>
       <r>   -5.9781    1.0000 </r>
       <r>   -5.8303    1.0000 </r>
       <r>   -5.6777    1.0000 </r>
       <r>   -5.5395    1.0000 </r>
       <r>   -5.4294    1.0000 </r>
       <r>   -5.3699    1.0000 </r>
       <r>   -5.3419    1.0000 </r>
       <r>   -5.3003    1.0000 </r>
       <r>   -5.1862    1.0000 </r>
       <r>   -5.0546    1.0000 </r>
       <r>   -5.0194    1.0000 </r>
       <r>   -4.9717    1.0000 </r>
       <r>   -4.7627    1.0000 </r>
       <r>   -4.7163    1.0000 </r>
       <r>   -4.6706    1.0000 </r>
       <r>   -4.6498    1.0000 </r>
       <r>   -4.5025    1.0000 </r>
       <r>   -4.4612    1.0000 </r>
       <r>   -4.4013    1.0000 </r>
       <r>   -4.3348    1.0000 </r>
       <r>   -4.2118    1.0000 </r>
       <r>   -4.1434    1.0000 </r>
       <r>   -4.0726    1.0000 </r>
       <r>   -3.9686    1.0000 </r>
       <r>   -3.8765    1.0000 </r>
       <r>   -3.7912    1.0000 </r>
       <r>   -3.7670    1.0000 </r>
       <r>   -3.7306    1.0000 </r>
       <r>   -3.6740    1.0000 </r>
       <r>   -3.6242    1.0000 </r>
       <r>   -3.6031    1.0000 </r>
       <r>   -3.5257    1.0000 </r>
       <r>   -3.4888    1.0000 </r>
       <r>   -3.3619    1.0000 </r>
       <r>   -3.3331    1.0000 </r>
       <r>   -3.2806    1.0000 </r>
       <r>   -3.2340    1.0000 </r>
       <r>   -3.1668    1.0000 </r>
       <r>   -3.0119    1.0000 </r>
       <r>   -2.9579    1.0000 </r>
       <r>   -2.9454    1.0000 </r>
       <r>   -2.8586    1.0000 </r>
       <r>   -2.7729    1.0000 </r>
       <r>   -2.7371    1.0000 </r>
       <r>   -2.5292    1.0000 </r>
       <r>   -2.4619    1.0000 </r>
       <r>   -2.3696    1.0000 </r>
       <r>   -2.3368    1.0000 </r>
       <r>   -2.2592    1.0000 </r>
       <r>   -2.2246    1.0000 </r>
       <r>   -2.1343    1.0000 </r>
       <r>   -2.0814    1.0000 </r>
       <r>   -1.9826    1.0000 </r>
       <r>   -1.9520    1.0000 </r>
       <r>   -1.8709    1.0000 </r>
       <r>   -1.8149    1.0000 </r>
       <r>   -1.7775    1.0000 </r>
       <r>   -1.6483    1.0000 </r>
       <r>   -1.4900    1.0000 </r>
       <r>   -1.2983    1.0013 </r>
       <r>   -1.2502    1.0035 </r>
       <r>   -1.2047    1.0078 </r>
       <r>   -1.1220    1.0234 </r>
       <r>   -0.9043    0.8723 </r>
       <r>   -0.8375    0.6420 </r>
       <r>   -0.7903    0.4445 </r>
       <r>   -0.7564    0.3067 </r>
       <r>   -0.6563    0.0283 </r>
       <r>   -0.5227   -0.0316 </r>
       <r>   -0.5004   -0.0270 </r>
       <r>   -0.2043   -0.0001 </r>
       <r>    0.6968   -0.0000 </r>
       <r>    1.0213   -0.0000 </r>
       <r>    1.0757   -0.0000 </r>
       <r>    1.8159   -0.0000 </r>
       <r>    1.9689   -0.0000 </r>
       <r>    2.0602   -0.0000 </r>
       <r>    2.4820   -0.0000 </r>
       <r>    3.0380   -0.0000 </r>
       <r>    3.5795   -0.0000 </r>
       <r>    4.0109   -0.0000 </r>
      </set>
      <set comment="kpoint 5">
       <r>   -8.5322    1.0000 </r>
       <r>   -8.1922    1.0000 </r>
       <r>   -7.4552    1.0000 </r>
       <r>   -7.2485    1.0000 </r>
       <r>   -6.6690    1.0000 </r>
       <r>   -6.6535    1.0000 </r>
       <r>   -6.5314    1.0000 </r>
       <r>   -6.4641    1.0000 </r>
       <r>   -6.4460    1.0000 </r>
       <r>   -6.3627    1.0000 </r>
       <r>   -6.3320    1.0000 </r>
       <r>   -6.1951    1.0000 </r>
       <r>   -6.1344    1.0000 </r>
       <r>   -6.0234    1.0000 </r>
       <r>   -5.8754    1.0000 </r>
       <r>   -5.7646    1.0000 </r>
       <r>   -5.6774    1.0000 </r>
       <r>   -5.6413    1.0000 </r>
       <r>   -5.5678    1.0000 </r>
       <r>   -5.4870    1.0000 </r>
       <r>   -5.3341    1.0000 </r>
       <r>   -5.2660    1.0000 </r>
       <r>   -5.2335    1.0000 </r>
       <r>   -5.1957    1.0000 </r>
       <r>   -5.1114    1.0000 </r>
       <r>   -5.0454    1.0000 </r>
       <r>   -5.0244    1.0000 </r>
       <r>   -4.9118    1.0000 </r>
       <r>   -4.7923    1.0000 </r>
       <r>   -4.6943    1.0000 </r>
       <r>   -4.6427    1.0000 </r>
       <r>   -4.5688    1.0000 </r>
       <r>   -4.5468    1.0000 </r>
       <r>   -4.4701    1.0000 </r>
       <r>   -4.4029    1.0000 </r>
       <r>   -4.2504    1.0000 </r>
       <r>   -4.1278    1.0000 </r>
       <r>   -4.0682    1.0000 </r>
       <r>   -4.0389    1.0000 </r>
       <r>   -3.9529    1.0000 </r>
       <r>   -3.8714    1.0000 </r>
       <r>   -3.8481    1.0000 </r>
       <r>   -3.7526    1.0000 </r>
       <r>   -3.6832    1.0000 </r>
       <r>   -3.6713    1.0000 </r>
       <r>   -3.6308    1.0000 </r>
       <r>   -3.6167    1.0000 </r>
       <r>   -3.5964    1.0000 </r>
       <r>   -3.5368    1.0000 </r>
       <r>   -3.4433    1.0000 </r>
       <r>   -3.4117    1.0000 </r>
       <r>   -3.3113    1.0000 </r>
       <r>   -3.0890    1.0000 </r>
       <r>   -3.0594    1.0000 </r>
       <r>   -2.9866    1.0000 </r>
       <r>   -2.9203    1.0000 </r>
       <r>   -2.8218    1.0000 </r>
       <r>   -2.8012    1.0000 </r>
       <r>   -2.7175    1.0000 </r>
       <r>   -2.6377    1.0000 </r>
       <r>   -2.5774    1.0000 </r>
       <r>   -2.4546    1.0000 </r>
       <r>   -2.3633    1.0000 </r>
       <r>   -2.3016    1.0000 </r>
       <r>   -2.2540    1.0000 </r>
       <r>   -2.2199    1.0000 </r>
       <r>   -2.1489    1.0000 </r>
       <r>   -2.1389    1.0000 </r>
       <r>   -2.0261    1.0000 </r>
       <r>   -1.9704    1.0000 </r>
       <r>   -1.8848    1.0000 </r>
       <r>   -1.8412    1.0000 </r>
       <r>   -1.8148    1.0000 </r>
       <r>   -1.6390    1.0000 </r>
       <r>   -1.4103    1.0001 </r>
       <r>   -1.2686    1.0024 </r>
       <r>   -1.2165    1.0064 </r>
       <r>   -1.1304    1.0215 </r>
       <r>   -0.8804    0.8005 </r>
       <r>   -0.8143    0.5458 </r>
       <r>   -0.7765    0.3872 </r>
       <r>   -0.6946    0.1066 </r>
       <r>   -0.5949   -0.0290 </r>
       <r>   -0.5249   -0.0320 </r>
       <r>   -0.4994   -0.0267 </r>
       <r>   -0.4004   -0.0076 </r>
       <r>    0.7239   -0.0000 </r>
       <r>    1.0912   -0.0000 </r>
       <r>    1.3476   -0.0000 </r>
       <r>    1.6581   -0.0000 </r>
       <r>    1.8304   -0.0000 </r>
       <r>    2.0902   -0.0000 </r>
       <r>    2.5147   -0.0000 </r>
       <r>    3.5869   -0.0000 </r>
       <r>    3.6299   -0.0000 </r>
       <r>    4.0240   -0.0000 </r>
      </set>
      <set comment="kpoint 6">
       <r>   -9.2195    1.0000 </r>
       <r>   -7.9970    1.0000 </r>
       <r>   -7.6713    1.0000 </r>
       <r>   -7.0983    1.0000 </r>
       <r>   -6.9625    1.0000 </r>
       <r>   -6.9247    1.0000 </r>
       <r>   -6.8526    1.0000 </r>
       <r>   -6.7015    1.0000 </r>
       <r>   -6.6959    1.0000 </r>
       <r>   -6.6329    1.0000 </r>
       <r>   -6.6186    1.0000 </r>
       <r>   -6.3596    1.0000 </r>
       <r>   -6.3230    1.0000 </r>
       <r>   -6.2468    1.0000 </r>
       <r>   -6.1886    1.0000 </r>
       <r>   -6.1361    1.0000 </r>
       <r>   -5.9586    1.0000 </r>
       <r>   -5.8392    1.0000 </r>
       <r>   -5.7137    1.0000 </r>
       <r>   -5.4942    1.0000 </r>
       <r>   -5.4627    1.0000 </r>
       <r>   -5.4318    1.0000 </r>
       <r>   -5.2135    1.0000 </r>
       <r>   -5.1509    1.0000 </r>
       <r>   -5.0011    1.0000 </r>
       <r>   -4.9458    1.0000 </r>
       <r>   -4.8578    1.0000 </r>
       <r>   -4.7467    1.0000 </r>
       <r>   -4.6047    1.0000 </r>
       <r>   -4.5654    1.0000 </r>
       <r>   -4.4739    1.0000 </r>
       <r>   -4.3787    1.0000 </r>
       <r>   -4.3429    1.0000 </r>
       <r>   -4.2642    1.0000 </r>
       <r>   -4.2249    1.0000 </r>
       <r>   -4.1636    1.0000 </r>
       <r>   -4.1087    1.0000 </r>
       <r>   -4.0899    1.0000 </r>
       <r>   -3.9901    1.0000 </r>
       <r>   -3.8357    1.0000 </r>
       <r>   -3.7946    1.0000 </r>
       <r>   -3.7701    1.0000 </r>
       <r>   -3.7295    1.0000 </r>
       <r>   -3.6669    1.0000 </r>
       <r>   -3.5859    1.0000 </r>
       <r>   -3.5707    1.0000 </r>
       <r>   -3.4774    1.0000 </r>
       <r>   -3.2819    1.0000 </r>
       <r>   -3.2015    1.0000 </r>
       <r>   -3.1302    1.0000 </r>
       <r>   -3.1175    1.0000 </r>
       <r>   -2.9918    1.0000 </r>
       <r>   -2.9577    1.0000 </r>
       <r>   -2.9089    1.0000 </r>
       <r>   -2.8863    1.0000 </r>
       <r>   -2.7951    1.0000 </r>
       <r>   -2.7565    1.0000 </r>
       <r>   -2.7287    1.0000 </r>
       <r>   -2.6433    1.0000 </r>
       <r>   -2.5351    1.0000 </r>
       <r>   -2.2852    1.0000 </r>
       <r>   -2.2381    1.0000 </r>
       <r>   -2.1724    1.0000 </r>
       <r>   -2.1252    1.0000 </r>
       <r>   -2.0784    1.0000 </r>
       <r>   -1.9968    1.0000 </r>
       <r>   -1.9142    1.0000 </r>
       <r>   -1.8589    1.0000 </r>
       <r>   -1.8035    1.0000 </r>
       <r>   -1.6998    1.0000 </r>
       <r>   -1.6503    1.0000 </r>
       <r>   -1.5636    1.0000 </r>
       <r>   -1.4905    1.0000 </r>
       <r>   -1.3134    1.0009 </r>
       <r>   -1.2197    1.0061 </r>
       <r>   -1.1914    1.0097 </r>
       <r>   -1.1040    1.0275 </r>
       <r>   -1.0477    1.0355 </r>
       <r>   -0.9808    1.0090 </r>
       <r>   -0.8552    0.7112 </r>
       <r>   -0.8111    0.5322 </r>
       <r>   -0.7777    0.3919 </r>
       <r>   -0.6587    0.0321 </r>
       <r>   -0.5203   -0.0312 </r>
       <r>   -0.5005   -0.0270 </r>
       <r>    0.0307   -0.0000 </r>
       <r>    0.6398   -0.0000 </r>
       <r>    0.7067   -0.0000 </r>
       <r>    1.0135   -0.0000 </r>
       <r>    1.7864   -0.0000 </r>
       <r>    1.9941   -0.0000 </r>
       <r>    2.2898   -0.0000 </r>
       <r>    2.4143   -0.0000 </r>
       <r>    2.4891   -0.0000 </r>
       <r>    3.4622   -0.0000 </r>
       <r>    3.9804   -0.0000 </r>
      </set>
      <set comment="kpoint 7">
       <r>   -9.7776    1.0000 </r>
       <r>   -8.5155    1.0000 </r>
       <r>   -7.4614    1.0000 </r>
       <r>   -7.4460    1.0000 </r>
       <r>   -7.3489    1.0000 </r>
       <r>   -7.2404    1.0000 </r>
       <r>   -7.1612    1.0000 </r>
       <r>   -7.0804    1.0000 </r>
       <r>   -7.0329    1.0000 </r>
       <r>   -6.9539    1.0000 </r>
       <r>   -6.6955    1.0000 </r>
       <r>   -6.6347    1.0000 </r>
       <r>   -6.6120    1.0000 </r>
       <r>   -6.5949    1.0000 </r>
       <r>   -6.4980    1.0000 </r>
       <r>   -6.3862    1.0000 </r>
       <r>   -6.2987    1.0000 </r>
       <r>   -6.2109    1.0000 </r>
       <r>   -6.1318    1.0000 </r>
       <r>   -5.6723    1.0000 </r>
       <r>   -5.6551    1.0000 </r>
       <r>   -5.5795    1.0000 </r>
       <r>   -5.0165    1.0000 </r>
       <r>   -4.9291    1.0000 </r>
       <r>   -4.8815    1.0000 </r>
       <r>   -4.7988    1.0000 </r>
       <r>   -4.7225    1.0000 </r>
       <r>   -4.5995    1.0000 </r>
       <r>   -4.5353    1.0000 </r>
       <r>   -4.5037    1.0000 </r>
       <r>   -4.4653    1.0000 </r>
       <r>   -4.2454    1.0000 </r>
       <r>   -4.1793    1.0000 </r>
       <r>   -4.1436    1.0000 </r>
       <r>   -4.0554    1.0000 </r>
       <r>   -4.0264    1.0000 </r>
       <r>   -3.9980    1.0000 </r>
       <r>   -3.9393    1.0000 </r>
       <r>   -3.9245    1.0000 </r>
       <r>   -3.8263    1.0000 </r>
       <r>   -3.7872    1.0000 </r>
       <r>   -3.7742    1.0000 </r>
       <r>   -3.7182    1.0000 </r>
       <r>   -3.6696    1.0000 </r>
       <r>   -3.6211    1.0000 </r>
       <r>   -3.4802    1.0000 </r>
       <r>   -3.3926    1.0000 </r>
       <r>   -3.2673    1.0000 </r>
       <r>   -2.9950    1.0000 </r>
       <r>   -2.8695    1.0000 </r>
       <r>   -2.7279    1.0000 </r>
       <r>   -2.5564    1.0000 </r>
       <r>   -2.5374    1.0000 </r>
       <r>   -2.4818    1.0000 </r>
       <r>   -2.3494    1.0000 </r>
       <r>   -2.3163    1.0000 </r>
       <r>   -2.1724    1.0000 </r>
       <r>   -2.1174    1.0000 </r>
       <r>   -2.1025    1.0000 </r>
       <r>   -2.0314    1.0000 </r>
       <r>   -1.9745    1.0000 </r>
       <r>   -1.8952    1.0000 </r>
       <r>   -1.8362    1.0000 </r>
       <r>   -1.7889    1.0000 </r>
       <r>   -1.7661    1.0000 </r>
       <r>   -1.5827    1.0000 </r>
       <r>   -1.4390    1.0000 </r>
       <r>   -1.3526    1.0004 </r>
       <r>   -1.3329    1.0006 </r>
       <r>   -1.2829    1.0018 </r>
       <r>   -1.2431    1.0040 </r>
       <r>   -1.2067    1.0076 </r>
       <r>   -1.1355    1.0203 </r>
       <r>   -1.0697    1.0339 </r>
       <r>   -1.0241    1.0328 </r>
       <r>   -0.9903    1.0169 </r>
       <r>   -0.9551    0.9785 </r>
       <r>   -0.8428    0.6628 </r>
       <r>   -0.8127    0.5389 </r>
       <r>   -0.7749    0.3805 </r>
       <r>   -0.6561    0.0280 </r>
       <r>   -0.5745   -0.0344 </r>
       <r>   -0.5052   -0.0280 </r>
       <r>   -0.4726   -0.0206 </r>
       <r>   -0.3001   -0.0011 </r>
       <r>    0.0371   -0.0000 </r>
       <r>    0.4327   -0.0000 </r>
       <r>    0.6814   -0.0000 </r>
       <r>    0.8634   -0.0000 </r>
       <r>    1.3683   -0.0000 </r>
       <r>    1.5758   -0.0000 </r>
       <r>    1.7776   -0.0000 </r>
       <r>    2.2024   -0.0000 </r>
       <r>    2.9015   -0.0000 </r>
       <r>    3.0606   -0.0000 </r>
       <r>    3.6330   -0.0000 </r>
      </set>
      <set comment="kpoint 8">
       <r>  -10.1114    1.0000 </r>
       <r>   -8.8422    1.0000 </r>
       <r>   -7.7777    1.0000 </r>
       <r>   -7.6619    1.0000 </r>
       <r>   -7.4277    1.0000 </r>
       <r>   -7.4229    1.0000 </r>
       <r>   -7.3530    1.0000 </r>
       <r>   -7.2629    1.0000 </r>
       <r>   -7.2526    1.0000 </r>
       <r>   -7.2122    1.0000 </r>
       <r>   -6.8039    1.0000 </r>
       <r>   -6.7817    1.0000 </r>
       <r>   -6.7755    1.0000 </r>
       <r>   -6.7616    1.0000 </r>
       <r>   -6.7289    1.0000 </r>
       <r>   -6.5524    1.0000 </r>
       <r>   -6.5047    1.0000 </r>
       <r>   -6.4648    1.0000 </r>
       <r>   -6.4271    1.0000 </r>
       <r>   -5.7647    1.0000 </r>
       <r>   -5.7604    1.0000 </r>
       <r>   -5.6654    1.0000 </r>
       <r>   -4.9276    1.0000 </r>
       <r>   -4.9043    1.0000 </r>
       <r>   -4.8143    1.0000 </r>
       <r>   -4.6786    1.0000 </r>
       <r>   -4.6374    1.0000 </r>
       <r>   -4.6207    1.0000 </r>
       <r>   -4.6035    1.0000 </r>
       <r>   -4.5464    1.0000 </r>
       <r>   -4.4025    1.0000 </r>
       <r>   -4.2672    1.0000 </r>
       <r>   -4.1911    1.0000 </r>
       <r>   -4.1451    1.0000 </r>
       <r>   -4.0736    1.0000 </r>
       <r>   -4.0261    1.0000 </r>
       <r>   -3.9843    1.0000 </r>
       <r>   -3.9478    1.0000 </r>
       <r>   -3.9244    1.0000 </r>
       <r>   -3.8673    1.0000 </r>
       <r>   -3.7174    1.0000 </r>
       <r>   -3.6313    1.0000 </r>
       <r>   -3.5561    1.0000 </r>
       <r>   -3.5094    1.0000 </r>
       <r>   -3.4910    1.0000 </r>
       <r>   -3.2929    1.0000 </r>
       <r>   -3.1992    1.0000 </r>
       <r>   -2.9941    1.0000 </r>
       <r>   -2.9115    1.0000 </r>
       <r>   -2.7535    1.0000 </r>
       <r>   -2.6934    1.0000 </r>
       <r>   -2.3894    1.0000 </r>
       <r>   -2.3612    1.0000 </r>
       <r>   -2.1674    1.0000 </r>
       <r>   -2.0692    1.0000 </r>
       <r>   -1.8857    1.0000 </r>
       <r>   -1.8340    1.0000 </r>
       <r>   -1.7819    1.0000 </r>
       <r>   -1.7373    1.0000 </r>
       <r>   -1.6753    1.0000 </r>
       <r>   -1.6694    1.0000 </r>
       <r>   -1.6121    1.0000 </r>
       <r>   -1.3632    1.0003 </r>
       <r>   -1.3392    1.0005 </r>
       <r>   -1.2564    1.0031 </r>
       <r>   -1.2052    1.0078 </r>
       <r>   -1.1371    1.0199 </r>
       <r>   -1.0142    1.0298 </r>
       <r>   -0.9917    1.0179 </r>
       <r>   -0.9560    0.9798 </r>
       <r>   -0.9137    0.8969 </r>
       <r>   -0.8782    0.7932 </r>
       <r>   -0.8245    0.5885 </r>
       <r>   -0.7788    0.3965 </r>
       <r>   -0.7418    0.2524 </r>
       <r>   -0.7334    0.2227 </r>
       <r>   -0.6342   -0.0009 </r>
       <r>   -0.6139   -0.0189 </r>
       <r>   -0.5943   -0.0293 </r>
       <r>   -0.5662   -0.0352 </r>
       <r>   -0.4600   -0.0178 </r>
       <r>   -0.3614   -0.0038 </r>
       <r>   -0.2774   -0.0006 </r>
       <r>   -0.1615   -0.0000 </r>
       <r>    0.1073   -0.0000 </r>
       <r>    0.1390   -0.0000 </r>
       <r>    0.3785   -0.0000 </r>
       <r>    0.8222   -0.0000 </r>
       <r>    0.9174   -0.0000 </r>
       <r>    0.9446   -0.0000 </r>
       <r>    1.4642   -0.0000 </r>
       <r>    1.5273   -0.0000 </r>
       <r>    1.9953   -0.0000 </r>
       <r>    2.2531   -0.0000 </r>
       <r>    2.5064   -0.0000 </r>
       <r>    3.2194   -0.0000 </r>
      </set>
      <set comment="kpoint 9">
       <r>   -9.9093    1.0000 </r>
       <r>   -8.6435    1.0000 </r>
       <r>   -7.5764    1.0000 </r>
       <r>   -7.4734    1.0000 </r>
       <r>   -7.4646    1.0000 </r>
       <r>   -7.2378    1.0000 </r>
       <r>   -7.2336    1.0000 </r>
       <r>   -7.2129    1.0000 </r>
       <r>   -7.0834    1.0000 </r>
       <r>   -7.0707    1.0000 </r>
       <r>   -6.7328    1.0000 </r>
       <r>   -6.6993    1.0000 </r>
       <r>   -6.6734    1.0000 </r>
       <r>   -6.6716    1.0000 </r>
       <r>   -6.5661    1.0000 </r>
       <r>   -6.4594    1.0000 </r>
       <r>   -6.3836    1.0000 </r>
       <r>   -6.2931    1.0000 </r>
       <r>   -6.2629    1.0000 </r>
       <r>   -5.7105    1.0000 </r>
       <r>   -5.6951    1.0000 </r>
       <r>   -5.6127    1.0000 </r>
       <r>   -4.9699    1.0000 </r>
       <r>   -4.9149    1.0000 </r>
       <r>   -4.8504    1.0000 </r>
       <r>   -4.7590    1.0000 </r>
       <r>   -4.6726    1.0000 </r>
       <r>   -4.5730    1.0000 </r>
       <r>   -4.5502    1.0000 </r>
       <r>   -4.5190    1.0000 </r>
       <r>   -4.4951    1.0000 </r>
       <r>   -4.2191    1.0000 </r>
       <r>   -4.1373    1.0000 </r>
       <r>   -4.1248    1.0000 </r>
       <r>   -4.1055    1.0000 </r>
       <r>   -4.0191    1.0000 </r>
       <r>   -4.0132    1.0000 </r>
       <r>   -3.9672    1.0000 </r>
       <r>   -3.8806    1.0000 </r>
       <r>   -3.8230    1.0000 </r>
       <r>   -3.8119    1.0000 </r>
       <r>   -3.7013    1.0000 </r>
       <r>   -3.6448    1.0000 </r>
       <r>   -3.6296    1.0000 </r>
       <r>   -3.4964    1.0000 </r>
       <r>   -3.4875    1.0000 </r>
       <r>   -3.4097    1.0000 </r>
       <r>   -3.1274    1.0000 </r>
       <r>   -2.9810    1.0000 </r>
       <r>   -2.8176    1.0000 </r>
       <r>   -2.6975    1.0000 </r>
       <r>   -2.4782    1.0000 </r>
       <r>   -2.4458    1.0000 </r>
       <r>   -2.3948    1.0000 </r>
       <r>   -2.1873    1.0000 </r>
       <r>   -2.0980    1.0000 </r>
       <r>   -2.0118    1.0000 </r>
       <r>   -2.0115    1.0000 </r>
       <r>   -1.9188    1.0000 </r>
       <r>   -1.9065    1.0000 </r>
       <r>   -1.8510    1.0000 </r>
       <r>   -1.7619    1.0000 </r>
       <r>   -1.7112    1.0000 </r>
       <r>   -1.7067    1.0000 </r>
       <r>   -1.5346    1.0000 </r>
       <r>   -1.4461    1.0000 </r>
       <r>   -1.2764    1.0021 </r>
       <r>   -1.2725    1.0022 </r>
       <r>   -1.2164    1.0064 </r>
       <r>   -1.1334    1.0208 </r>
       <r>   -1.1318    1.0211 </r>
       <r>   -1.0794    1.0325 </r>
       <r>   -1.0397    1.0351 </r>
       <r>   -0.9993    1.0228 </r>
       <r>   -0.9545    0.9777 </r>
       <r>   -0.9000    0.8605 </r>
       <r>   -0.8138    0.5435 </r>
       <r>   -0.7967    0.4716 </r>
       <r>   -0.7549    0.3013 </r>
       <r>   -0.7011    0.1236 </r>
       <r>   -0.6114   -0.0205 </r>
       <r>   -0.4649   -0.0189 </r>
       <r>   -0.4412   -0.0140 </r>
       <r>   -0.3809   -0.0055 </r>
       <r>   -0.2760   -0.0006 </r>
       <r>   -0.1724   -0.0000 </r>
       <r>    0.7849   -0.0000 </r>
       <r>    0.8809   -0.0000 </r>
       <r>    0.9134   -0.0000 </r>
       <r>    1.0378   -0.0000 </r>
       <r>    1.5091   -0.0000 </r>
       <r>    1.5099   -0.0000 </r>
       <r>    2.2490   -0.0000 </r>
       <r>    2.2772   -0.0000 </r>
       <r>    3.1925   -0.0000 </r>
       <r>    3.6527   -0.0000 </r>
      </set>
      <set comment="kpoint 10">
       <r>   -9.5841    1.0000 </r>
       <r>   -8.3297    1.0000 </r>
       <r>   -7.4132    1.0000 </r>
       <r>   -7.2670    1.0000 </r>
       <r>   -7.2604    1.0000 </r>
       <r>   -7.1721    1.0000 </r>
       <r>   -7.0625    1.0000 </r>
       <r>   -6.9758    1.0000 </r>
       <r>   -6.8959    1.0000 </r>
       <r>   -6.8149    1.0000 </r>
       <r>   -6.6225    1.0000 </r>
       <r>   -6.5557    1.0000 </r>
       <r>   -6.5168    1.0000 </r>
       <r>   -6.4760    1.0000 </r>
       <r>   -6.4304    1.0000 </r>
       <r>   -6.2613    1.0000 </r>
       <r>   -6.1915    1.0000 </r>
       <r>   -6.0761    1.0000 </r>
       <r>   -5.9556    1.0000 </r>
       <r>   -5.6101    1.0000 </r>
       <r>   -5.5991    1.0000 </r>
       <r>   -5.5305    1.0000 </r>
       <r>   -5.1044    1.0000 </r>
       <r>   -4.9841    1.0000 </r>
       <r>   -4.8996    1.0000 </r>
       <r>   -4.8419    1.0000 </r>
       <r>   -4.8050    1.0000 </r>
       <r>   -4.6999    1.0000 </r>
       <r>   -4.5226    1.0000 </r>
       <r>   -4.4756    1.0000 </r>
       <r>   -4.4101    1.0000 </r>
       <r>   -4.2764    1.0000 </r>
       <r>   -4.2355    1.0000 </r>
       <r>   -4.1952    1.0000 </r>
       <r>   -4.1084    1.0000 </r>
       <r>   -4.0740    1.0000 </r>
       <r>   -4.0339    1.0000 </r>
       <r>   -3.9230    1.0000 </r>
       <r>   -3.8879    1.0000 </r>
       <r>   -3.8529    1.0000 </r>
       <r>   -3.8284    1.0000 </r>
       <r>   -3.8198    1.0000 </r>
       <r>   -3.7695    1.0000 </r>
       <r>   -3.7589    1.0000 </r>
       <r>   -3.6166    1.0000 </r>
       <r>   -3.5182    1.0000 </r>
       <r>   -3.4378    1.0000 </r>
       <r>   -3.2589    1.0000 </r>
       <r>   -3.0526    1.0000 </r>
       <r>   -2.9471    1.0000 </r>
       <r>   -2.8121    1.0000 </r>
       <r>   -2.7544    1.0000 </r>
       <r>   -2.6422    1.0000 </r>
       <r>   -2.6188    1.0000 </r>
       <r>   -2.5653    1.0000 </r>
       <r>   -2.5243    1.0000 </r>
       <r>   -2.4961    1.0000 </r>
       <r>   -2.3991    1.0000 </r>
       <r>   -2.3192    1.0000 </r>
       <r>   -2.2666    1.0000 </r>
       <r>   -2.1323    1.0000 </r>
       <r>   -2.0482    1.0000 </r>
       <r>   -1.9774    1.0000 </r>
       <r>   -1.9342    1.0000 </r>
       <r>   -1.8245    1.0000 </r>
       <r>   -1.7381    1.0000 </r>
       <r>   -1.6549    1.0000 </r>
       <r>   -1.5915    1.0000 </r>
       <r>   -1.5193    1.0000 </r>
       <r>   -1.4541    1.0000 </r>
       <r>   -1.4250    1.0001 </r>
       <r>   -1.3325    1.0006 </r>
       <r>   -1.1805    1.0114 </r>
       <r>   -1.1076    1.0267 </r>
       <r>   -1.0575    1.0352 </r>
       <r>   -1.0131    1.0294 </r>
       <r>   -0.9808    1.0090 </r>
       <r>   -0.9283    0.9306 </r>
       <r>   -0.8562    0.7149 </r>
       <r>   -0.8216    0.5763 </r>
       <r>   -0.6887    0.0920 </r>
       <r>   -0.6130   -0.0194 </r>
       <r>   -0.5835   -0.0326 </r>
       <r>   -0.5017   -0.0273 </r>
       <r>   -0.2434   -0.0003 </r>
       <r>   -0.0160   -0.0000 </r>
       <r>    0.2873   -0.0000 </r>
       <r>    0.3234   -0.0000 </r>
       <r>    0.6981   -0.0000 </r>
       <r>    1.2457   -0.0000 </r>
       <r>    1.7935   -0.0000 </r>
       <r>    2.2380   -0.0000 </r>
       <r>    2.8173   -0.0000 </r>
       <r>    2.9797   -0.0000 </r>
       <r>    3.3398   -0.0000 </r>
       <r>    3.3987   -0.0000 </r>
      </set>
      <set comment="kpoint 11">
       <r>   -9.0372    1.0000 </r>
       <r>   -7.8263    1.0000 </r>
       <r>   -7.4778    1.0000 </r>
       <r>   -7.2386    1.0000 </r>
       <r>   -6.9137    1.0000 </r>
       <r>   -6.7842    1.0000 </r>
       <r>   -6.7673    1.0000 </r>
       <r>   -6.6955    1.0000 </r>
       <r>   -6.5330    1.0000 </r>
       <r>   -6.4850    1.0000 </r>
       <r>   -6.4646    1.0000 </r>
       <r>   -6.3650    1.0000 </r>
       <r>   -6.2476    1.0000 </r>
       <r>   -6.2077    1.0000 </r>
       <r>   -6.0675    1.0000 </r>
       <r>   -5.9828    1.0000 </r>
       <r>   -5.8722    1.0000 </r>
       <r>   -5.7510    1.0000 </r>
       <r>   -5.6406    1.0000 </r>
       <r>   -5.4704    1.0000 </r>
       <r>   -5.4106    1.0000 </r>
       <r>   -5.3656    1.0000 </r>
       <r>   -5.2678    1.0000 </r>
       <r>   -5.1976    1.0000 </r>
       <r>   -5.0997    1.0000 </r>
       <r>   -4.9926    1.0000 </r>
       <r>   -4.9077    1.0000 </r>
       <r>   -4.8285    1.0000 </r>
       <r>   -4.7002    1.0000 </r>
       <r>   -4.6236    1.0000 </r>
       <r>   -4.5616    1.0000 </r>
       <r>   -4.5027    1.0000 </r>
       <r>   -4.3964    1.0000 </r>
       <r>   -4.3548    1.0000 </r>
       <r>   -4.2262    1.0000 </r>
       <r>   -4.1926    1.0000 </r>
       <r>   -4.1575    1.0000 </r>
       <r>   -4.0888    1.0000 </r>
       <r>   -4.0266    1.0000 </r>
       <r>   -4.0077    1.0000 </r>
       <r>   -3.9123    1.0000 </r>
       <r>   -3.8747    1.0000 </r>
       <r>   -3.7736    1.0000 </r>
       <r>   -3.6632    1.0000 </r>
       <r>   -3.6025    1.0000 </r>
       <r>   -3.5738    1.0000 </r>
       <r>   -3.4721    1.0000 </r>
       <r>   -3.4222    1.0000 </r>
       <r>   -3.3017    1.0000 </r>
       <r>   -3.2807    1.0000 </r>
       <r>   -3.1690    1.0000 </r>
       <r>   -3.1173    1.0000 </r>
       <r>   -3.0011    1.0000 </r>
       <r>   -2.9604    1.0000 </r>
       <r>   -2.9073    1.0000 </r>
       <r>   -2.8785    1.0000 </r>
       <r>   -2.8159    1.0000 </r>
       <r>   -2.7504    1.0000 </r>
       <r>   -2.6977    1.0000 </r>
       <r>   -2.5591    1.0000 </r>
       <r>   -2.4919    1.0000 </r>
       <r>   -2.3377    1.0000 </r>
       <r>   -2.2542    1.0000 </r>
       <r>   -2.2026    1.0000 </r>
       <r>   -2.0884    1.0000 </r>
       <r>   -2.0274    1.0000 </r>
       <r>   -1.9477    1.0000 </r>
       <r>   -1.8625    1.0000 </r>
       <r>   -1.7712    1.0000 </r>
       <r>   -1.6724    1.0000 </r>
       <r>   -1.5613    1.0000 </r>
       <r>   -1.4883    1.0000 </r>
       <r>   -1.2826    1.0018 </r>
       <r>   -1.2543    1.0032 </r>
       <r>   -1.1915    1.0097 </r>
       <r>   -1.1329    1.0209 </r>
       <r>   -1.0471    1.0355 </r>
       <r>   -0.9862    1.0137 </r>
       <r>   -0.9493    0.9696 </r>
       <r>   -0.8767    0.7880 </r>
       <r>   -0.8201    0.5702 </r>
       <r>   -0.7508    0.2854 </r>
       <r>   -0.7216    0.1837 </r>
       <r>   -0.6900    0.0953 </r>
       <r>   -0.5675   -0.0351 </r>
       <r>   -0.3626   -0.0039 </r>
       <r>   -0.1103   -0.0000 </r>
       <r>    0.3436   -0.0000 </r>
       <r>    0.8114   -0.0000 </r>
       <r>    0.8969   -0.0000 </r>
       <r>    2.5172   -0.0000 </r>
       <r>    2.7914   -0.0000 </r>
       <r>    2.9129   -0.0000 </r>
       <r>    2.9750   -0.0000 </r>
       <r>    3.5880   -0.0000 </r>
       <r>    3.8843   -0.0000 </r>
      </set>
      <set comment="kpoint 12">
       <r>   -8.3546    1.0000 </r>
       <r>   -8.0115    1.0000 </r>
       <r>   -7.2878    1.0000 </r>
       <r>   -7.0879    1.0000 </r>
       <r>   -7.0763    1.0000 </r>
       <r>   -6.5898    1.0000 </r>
       <r>   -6.4477    1.0000 </r>
       <r>   -6.3398    1.0000 </r>
       <r>   -6.2905    1.0000 </r>
       <r>   -6.2019    1.0000 </r>
       <r>   -6.1611    1.0000 </r>
       <r>   -6.1260    1.0000 </r>
       <r>   -6.0219    1.0000 </r>
       <r>   -5.8933    1.0000 </r>
       <r>   -5.8320    1.0000 </r>
       <r>   -5.7738    1.0000 </r>
       <r>   -5.6282    1.0000 </r>
       <r>   -5.5925    1.0000 </r>
       <r>   -5.5234    1.0000 </r>
       <r>   -5.4854    1.0000 </r>
       <r>   -5.3961    1.0000 </r>
       <r>   -5.3118    1.0000 </r>
       <r>   -5.2648    1.0000 </r>
       <r>   -5.2343    1.0000 </r>
       <r>   -5.2127    1.0000 </r>
       <r>   -5.1297    1.0000 </r>
       <r>   -5.1131    1.0000 </r>
       <r>   -5.0648    1.0000 </r>
       <r>   -4.8524    1.0000 </r>
       <r>   -4.7675    1.0000 </r>
       <r>   -4.6863    1.0000 </r>
       <r>   -4.5982    1.0000 </r>
       <r>   -4.5447    1.0000 </r>
       <r>   -4.4642    1.0000 </r>
       <r>   -4.4199    1.0000 </r>
       <r>   -4.3724    1.0000 </r>
       <r>   -4.2957    1.0000 </r>
       <r>   -4.2698    1.0000 </r>
       <r>   -4.2139    1.0000 </r>
       <r>   -4.1394    1.0000 </r>
       <r>   -4.0952    1.0000 </r>
       <r>   -3.9829    1.0000 </r>
       <r>   -3.8743    1.0000 </r>
       <r>   -3.8029    1.0000 </r>
       <r>   -3.7166    1.0000 </r>
       <r>   -3.6971    1.0000 </r>
       <r>   -3.6661    1.0000 </r>
       <r>   -3.5952    1.0000 </r>
       <r>   -3.5459    1.0000 </r>
       <r>   -3.4055    1.0000 </r>
       <r>   -3.3826    1.0000 </r>
       <r>   -3.2272    1.0000 </r>
       <r>   -3.1369    1.0000 </r>
       <r>   -3.0148    1.0000 </r>
       <r>   -2.9506    1.0000 </r>
       <r>   -2.8994    1.0000 </r>
       <r>   -2.8724    1.0000 </r>
       <r>   -2.7588    1.0000 </r>
       <r>   -2.6650    1.0000 </r>
       <r>   -2.5725    1.0000 </r>
       <r>   -2.4523    1.0000 </r>
       <r>   -2.4457    1.0000 </r>
       <r>   -2.3461    1.0000 </r>
       <r>   -2.3045    1.0000 </r>
       <r>   -2.1552    1.0000 </r>
       <r>   -2.0903    1.0000 </r>
       <r>   -2.0516    1.0000 </r>
       <r>   -1.9042    1.0000 </r>
       <r>   -1.8633    1.0000 </r>
       <r>   -1.8301    1.0000 </r>
       <r>   -1.7492    1.0000 </r>
       <r>   -1.6742    1.0000 </r>
       <r>   -1.5755    1.0000 </r>
       <r>   -1.4841    1.0000 </r>
       <r>   -1.3437    1.0004 </r>
       <r>   -1.3045    1.0011 </r>
       <r>   -1.2626    1.0027 </r>
       <r>   -1.1651    1.0141 </r>
       <r>   -1.0231    1.0325 </r>
       <r>   -0.9906    1.0171 </r>
       <r>   -0.9504    0.9714 </r>
       <r>   -0.8960    0.8488 </r>
       <r>   -0.7612    0.3258 </r>
       <r>   -0.7512    0.2872 </r>
       <r>   -0.4119   -0.0091 </r>
       <r>   -0.2857   -0.0008 </r>
       <r>   -0.2065   -0.0001 </r>
       <r>   -0.0389   -0.0000 </r>
       <r>    0.8792   -0.0000 </r>
       <r>    1.5083   -0.0000 </r>
       <r>    1.8245   -0.0000 </r>
       <r>    2.8711   -0.0000 </r>
       <r>    2.9486   -0.0000 </r>
       <r>    3.8436   -0.0000 </r>
       <r>    3.8648   -0.0000 </r>
       <r>    4.4002   -0.0000 </r>
      </set>
      <set comment="kpoint 13">
       <r>   -8.7045    1.0000 </r>
       <r>   -7.7102    1.0000 </r>
       <r>   -7.5439    1.0000 </r>
       <r>   -7.1457    1.0000 </r>
       <r>   -6.9573    1.0000 </r>
       <r>   -6.6544    1.0000 </r>
       <r>   -6.5610    1.0000 </r>
       <r>   -6.4318    1.0000 </r>
       <r>   -6.3965    1.0000 </r>
       <r>   -6.3863    1.0000 </r>
       <r>   -6.3029    1.0000 </r>
       <r>   -6.2188    1.0000 </r>
       <r>   -6.0995    1.0000 </r>
       <r>   -6.0448    1.0000 </r>
       <r>   -5.9084    1.0000 </r>
       <r>   -5.8699    1.0000 </r>
       <r>   -5.6885    1.0000 </r>
       <r>   -5.6512    1.0000 </r>
       <r>   -5.5385    1.0000 </r>
       <r>   -5.4205    1.0000 </r>
       <r>   -5.4029    1.0000 </r>
       <r>   -5.3364    1.0000 </r>
       <r>   -5.2749    1.0000 </r>
       <r>   -5.2119    1.0000 </r>
       <r>   -5.1643    1.0000 </r>
       <r>   -5.0897    1.0000 </r>
       <r>   -5.0403    1.0000 </r>
       <r>   -4.9434    1.0000 </r>
       <r>   -4.8095    1.0000 </r>
       <r>   -4.7645    1.0000 </r>
       <r>   -4.6501    1.0000 </r>
       <r>   -4.5818    1.0000 </r>
       <r>   -4.4995    1.0000 </r>
       <r>   -4.4491    1.0000 </r>
       <r>   -4.3345    1.0000 </r>
       <r>   -4.2868    1.0000 </r>
       <r>   -4.2108    1.0000 </r>
       <r>   -4.1375    1.0000 </r>
       <r>   -4.0742    1.0000 </r>
       <r>   -4.0396    1.0000 </r>
       <r>   -3.9615    1.0000 </r>
       <r>   -3.9110    1.0000 </r>
       <r>   -3.8898    1.0000 </r>
       <r>   -3.7910    1.0000 </r>
       <r>   -3.7643    1.0000 </r>
       <r>   -3.6718    1.0000 </r>
       <r>   -3.6056    1.0000 </r>
       <r>   -3.5111    1.0000 </r>
       <r>   -3.4428    1.0000 </r>
       <r>   -3.3675    1.0000 </r>
       <r>   -3.2285    1.0000 </r>
       <r>   -3.1953    1.0000 </r>
       <r>   -3.1237    1.0000 </r>
       <r>   -3.0257    1.0000 </r>
       <r>   -2.9318    1.0000 </r>
       <r>   -2.9052    1.0000 </r>
       <r>   -2.8468    1.0000 </r>
       <r>   -2.7633    1.0000 </r>
       <r>   -2.7243    1.0000 </r>
       <r>   -2.6013    1.0000 </r>
       <r>   -2.5171    1.0000 </r>
       <r>   -2.3696    1.0000 </r>
       <r>   -2.3349    1.0000 </r>
       <r>   -2.2748    1.0000 </r>
       <r>   -2.1914    1.0000 </r>
       <r>   -2.0639    1.0000 </r>
       <r>   -2.0192    1.0000 </r>
       <r>   -1.9502    1.0000 </r>
       <r>   -1.8224    1.0000 </r>
       <r>   -1.7505    1.0000 </r>
       <r>   -1.6461    1.0000 </r>
       <r>   -1.5664    1.0000 </r>
       <r>   -1.4739    1.0000 </r>
       <r>   -1.3207    1.0008 </r>
       <r>   -1.2742    1.0022 </r>
       <r>   -1.2457    1.0038 </r>
       <r>   -1.1546    1.0162 </r>
       <r>   -1.0495    1.0355 </r>
       <r>   -1.0107    1.0285 </r>
       <r>   -0.9647    0.9917 </r>
       <r>   -0.9392    0.9523 </r>
       <r>   -0.8593    0.7262 </r>
       <r>   -0.7515    0.2881 </r>
       <r>   -0.7409    0.2493 </r>
       <r>   -0.5625   -0.0354 </r>
       <r>   -0.3107   -0.0014 </r>
       <r>   -0.0701   -0.0000 </r>
       <r>    0.0340   -0.0000 </r>
       <r>    0.8556   -0.0000 </r>
       <r>    1.2018   -0.0000 </r>
       <r>    2.1552   -0.0000 </r>
       <r>    2.8867   -0.0000 </r>
       <r>    2.9581   -0.0000 </r>
       <r>    3.3268   -0.0000 </r>
       <r>    3.8362   -0.0000 </r>
       <r>    4.2169   -0.0000 </r>
      </set>
      <set comment="kpoint 14">
       <r>   -9.3345    1.0000 </r>
       <r>   -8.0951    1.0000 </r>
       <r>   -7.3368    1.0000 </r>
       <r>   -7.3332    1.0000 </r>
       <r>   -7.0314    1.0000 </r>
       <r>   -6.9507    1.0000 </r>
       <r>   -6.9370    1.0000 </r>
       <r>   -6.9132    1.0000 </r>
       <r>   -6.6942    1.0000 </r>
       <r>   -6.6707    1.0000 </r>
       <r>   -6.5318    1.0000 </r>
       <r>   -6.4838    1.0000 </r>
       <r>   -6.3904    1.0000 </r>
       <r>   -6.3538    1.0000 </r>
       <r>   -6.2742    1.0000 </r>
       <r>   -6.1042    1.0000 </r>
       <r>   -6.0705    1.0000 </r>
       <r>   -5.8978    1.0000 </r>
       <r>   -5.7799    1.0000 </r>
       <r>   -5.5402    1.0000 </r>
       <r>   -5.5106    1.0000 </r>
       <r>   -5.4588    1.0000 </r>
       <r>   -5.2094    1.0000 </r>
       <r>   -5.0812    1.0000 </r>
       <r>   -4.9689    1.0000 </r>
       <r>   -4.9053    1.0000 </r>
[...]
       <r>   -4.4470    1.0000 </r>
       <r>   -4.4350    1.0000 </r>
       <r>   -4.2948    1.0000 </r>
       <r>   -4.2248    1.0000 </r>
       <r>   -4.1567    1.0000 </r>
       <r>   -4.1116    1.0000 </r>
       <r>   -4.0916    1.0000 </r>
       <r>   -4.0051    1.0000 </r>
       <r>   -3.9452    1.0000 </r>
       <r>   -3.8070    1.0000 </r>
       <r>   -3.7238    1.0000 </r>
       <r>   -3.6949    1.0000 </r>
       <r>   -3.6666    1.0000 </r>
       <r>   -3.6355    1.0000 </r>
       <r>   -3.6018    1.0000 </r>
       <r>   -3.5847    1.0000 </r>
       <r>   -3.4389    1.0000 </r>
       <r>   -3.3948    1.0000 </r>
       <r>   -3.2705    1.0000 </r>
       <r>   -3.1363    1.0000 </r>
       <r>   -2.9779    1.0000 </r>
       <r>   -2.9523    1.0000 </r>
       <r>   -2.9175    1.0000 </r>
       <r>   -2.8630    1.0000 </r>
       <r>   -2.7783    1.0000 </r>
       <r>   -2.6871    1.0000 </r>
       <r>   -2.5789    1.0000 </r>
       <r>   -2.5035    1.0000 </r>
       <r>   -2.4718    1.0000 </r>
       <r>   -2.4145    1.0000 </r>
       <r>   -2.3052    1.0000 </r>
       <r>   -2.2144    1.0000 </r>
       <r>   -2.1562    1.0000 </r>
       <r>   -2.1287    1.0000 </r>
       <r>   -2.0776    1.0000 </r>
       <r>   -1.9616    1.0000 </r>
       <r>   -1.8905    1.0000 </r>
       <r>   -1.8634    1.0000 </r>
       <r>   -1.7795    1.0000 </r>
       <r>   -1.7135    1.0000 </r>
       <r>   -1.6018    1.0000 </r>
       <r>   -1.4146    1.0001 </r>
       <r>   -1.2853    1.0017 </r>
       <r>   -1.2479    1.0037 </r>
       <r>   -1.1468    1.0178 </r>
       <r>   -0.9601    0.9856 </r>
       <r>   -0.8946    0.8448 </r>
       <r>   -0.8475    0.6815 </r>
       <r>   -0.7757    0.3840 </r>
       <r>   -0.6246   -0.0104 </r>
       <r>   -0.6050   -0.0243 </r>
       <r>   -0.4411   -0.0140 </r>
       <r>   -0.3816   -0.0055 </r>
       <r>    0.2154   -0.0000 </r>
       <r>    0.5028   -0.0000 </r>
       <r>    1.4616   -0.0000 </r>
       <r>    1.5471   -0.0000 </r>
       <r>    1.5865   -0.0000 </r>
       <r>    2.3598   -0.0000 </r>
       <r>    3.1708   -0.0000 </r>
       <r>    3.4302   -0.0000 </r>
       <r>    3.9472   -0.0000 </r>
       <r>    3.9928   -0.0000 </r>
      </set>
     </set>
    </set>
   </array>
  </eigenvalues>
  <separator name="orbital magnetization" >
   <v name="MAGDIPOLOUT">      0.00000000      0.00000000      0.00000000</v>
  </separator>
  <dos>
   <i name="efermi">     -0.80345248 </i>
   <total>
    <array>
     <dimension dim="1">gridpoints</dimension>
     <dimension dim="2">spin</dimension>
     <field>energy</field>
     <field>total</field>
     <field>integrated</field>
     <set>
      <set comment="spin 1">
       <r>   -12.1800     0.0000     0.0000 </r>
       <r>   -12.1178     0.0000     0.0000 </r>
       <r>   -12.0555     0.0000     0.0000 </r>
       <r>   -11.9933     0.0000     0.0000 </r>
       <r>   -11.9310     0.0000     0.0000 </r>
       <r>   -11.8687     0.0000     0.0000 </r>
       <r>   -11.8065    -0.0000    -0.0000 </r>
       <r>   -11.7442    -0.0000    -0.0000 </r>
       <r>   -11.6819    -0.0000    -0.0000 </r>
       <r>   -11.6197    -0.0000    -0.0000 </r>
       <r>   -11.5574    -0.0000    -0.0000 </r>
       <r>   -11.4952    -0.0000    -0.0000 </r>
       <r>   -11.4329    -0.0000    -0.0000 </r>
       <r>   -11.3706    -0.0000    -0.0000 </r>
       <r>   -11.3084    -0.0000    -0.0000 </r>
       <r>   -11.2461    -0.0000    -0.0000 </r>
       <r>   -11.1839    -0.0000    -0.0000 </r>
       <r>   -11.1216    -0.0000    -0.0000 </r>
       <r>   -11.0593    -0.0000    -0.0000 </r>
       <r>   -10.9971    -0.0000    -0.0000 </r>
       <r>   -10.9348    -0.0000    -0.0000 </r>
       <r>   -10.8725    -0.0000    -0.0000 </r>
       <r>   -10.8103    -0.0000    -0.0000 </r>
       <r>   -10.7480    -0.0002    -0.0000 </r>
       <r>   -10.6858    -0.0010    -0.0001 </r>
       <r>   -10.6235    -0.0035    -0.0003 </r>
       <r>   -10.5612    -0.0097    -0.0009 </r>
       <r>   -10.4990    -0.0203    -0.0022 </r>
       <r>   -10.4367    -0.0284    -0.0039 </r>
       <r>   -10.3744    -0.0126    -0.0047 </r>
       <r>   -10.3122     0.0572    -0.0011 </r>
       <r>   -10.2499     0.1969     0.0111 </r>
       <r>   -10.1877     0.3872     0.0352 </r>
       <r>   -10.1254     0.5848     0.0716 </r>
       <r>   -10.0631     0.7544     0.1186 </r>
       <r>   -10.0009     0.8767     0.1732 </r>
       <r>    -9.9386     0.9340     0.2313 </r>
       <r>    -9.8764     0.9138     0.2882 </r>
       <r>    -9.8141     0.8348     0.3402 </r>
       <r>    -9.7518     0.7579     0.3874 </r>
       <r>    -9.6896     0.7588     0.4347 </r>
       <r>    -9.6273     0.8672     0.4886 </r>
       <r>    -9.5650     1.0179     0.5520 </r>
       <r>    -9.5028     1.0947     0.6202 </r>
       <r>    -9.4405     1.0439     0.6852 </r>
       <r>    -9.3783     0.9202     0.7425 </r>
       <r>    -9.3160     0.8082     0.7928 </r>
       <r>    -9.2537     0.7436     0.8391 </r>
       <r>    -9.1915     0.7356     0.8849 </r>
       <r>    -9.1292     0.8213     0.9360 </r>
       <r>    -9.0670     1.0369     1.0006 </r>
       <r>    -9.0047     1.3367     1.0838 </r>
       <r>    -8.9424     1.6003     1.1834 </r>
       <r>    -8.8802     1.7478     1.2923 </r>
       <r>    -8.8179     1.8083     1.4049 </r>
       <r>    -8.7556     1.8454     1.5198 </r>
       <r>    -8.6934     1.8562     1.6353 </r>
       <r>    -8.6311     1.8017     1.7475 </r>
       <r>    -8.5689     1.7182     1.8545 </r>
       <r>    -8.5066     1.7361     1.9626 </r>
       <r>    -8.4443     1.9632     2.0848 </r>
       <r>    -8.3821     2.3495     2.2311 </r>
       <r>    -8.3198     2.6798     2.3979 </r>
       <r>    -8.2576     2.7457     2.5689 </r>
       <r>    -8.1953     2.5456     2.7274 </r>
       <r>    -8.1330     2.2720     2.8688 </r>
       <r>    -8.0708     2.0973     2.9994 </r>
       <r>    -8.0085     2.0533     3.1273 </r>
       <r>    -7.9462     2.1566     3.2615 </r>
       <r>    -7.8840     2.5438     3.4199 </r>
       <r>    -7.8217     3.3404     3.6279 </r>
       <r>    -7.7595     4.4018     3.9020 </r>
       <r>    -7.6972     5.3400     4.2344 </r>
       <r>    -7.6349     5.9179     4.6029 </r>
       <r>    -7.5727     6.3339     4.9973 </r>
       <r>    -7.5104     6.9924     5.4326 </r>
       <r>    -7.4481     8.0824     5.9358 </r>
       <r>    -7.3859     9.5151     6.5283 </r>
       <r>    -7.3236    11.1216     7.2207 </r>
       <r>    -7.2614    12.6723     8.0097 </r>
       <r>    -7.1991    13.7868     8.8681 </r>
       <r>    -7.1368    14.0923     9.7455 </r>
       <r>    -7.0746    13.5529    10.5893 </r>
       <r>    -7.0123    12.6144    11.3747 </r>
       <r>    -6.9501    12.0366    12.1242 </r>
       <r>    -6.8878    12.5197    12.9037 </r>
       <r>    -6.8255    14.3146    13.7949 </r>
       <r>    -6.7633    17.0574    14.8569 </r>
       <r>    -6.7010    20.0014    16.1022 </r>
       <r>    -6.6387    22.4868    17.5023 </r>
       <r>    -6.5765    24.1850    19.0081 </r>
       <r>    -6.5142    24.9461    20.5613 </r>
       <r>    -6.4520    24.7019    22.0993 </r>
       <r>    -6.3897    23.7123    23.5756 </r>
       <r>    -6.3274    22.6460    24.9856 </r>
       <r>    -6.2652    22.0561    26.3589 </r>
       <r>    -6.2029    21.8046    27.7165 </r>
       <r>    -6.1407    21.2053    29.0367 </r>
       <r>    -6.0784    19.7438    30.2660 </r>
       <r>    -6.0161    17.5892    31.3612 </r>
       <r>    -5.9539    15.4656    32.3241 </r>
       <r>    -5.8916    14.1403    33.2045 </r>
       <r>    -5.8293    14.0372    34.0785 </r>
       <r>    -5.7671    15.1605    35.0224 </r>
       <r>    -5.7048    17.1361    36.0893 </r>
       <r>    -5.6426    19.2613    37.2885 </r>
       <r>    -5.5803    20.7298    38.5792 </r>
       <r>    -5.5180    21.0607    39.8905 </r>
       <r>    -5.4558    20.4073    41.1611 </r>
       <r>    -5.3935    19.4356    42.3712 </r>
       <r>    -5.3313    18.8475    43.5447 </r>
       <r>    -5.2690    18.9276    44.7231 </r>
       <r>    -5.2067    19.4697    45.9353 </r>
       <r>    -5.1445    20.0783    47.1854 </r>
       <r>    -5.0822    20.4981    48.4617 </r>
       <r>    -5.0199    20.7040    49.7508 </r>
       <r>    -4.9577    20.8223    51.0472 </r>
       <r>    -4.8954    21.0409    52.3572 </r>
       <r>    -4.8332    21.5397    53.6983 </r>
       <r>    -4.7709    22.4486    55.0960 </r>
       <r>    -4.7086    23.8299    56.5797 </r>
       <r>    -4.6464    25.5833    58.1726 </r>
       <r>    -4.5841    27.2720    59.8706 </r>
       <r>    -4.5219    28.1709    61.6245 </r>
       <r>    -4.4596    27.8002    63.3554 </r>
       <r>    -4.3973    26.5791    65.0103 </r>
       <r>    -4.3351    25.7647    66.6144 </r>
       <r>    -4.2728    26.4497    68.2612 </r>
       <r>    -4.2105    28.5614    70.0395 </r>
       <r>    -4.1483    30.9434    71.9661 </r>
       <r>    -4.0860    32.4063    73.9838 </r>
       <r>    -4.0238    32.6671    76.0177 </r>
       <r>    -3.9615    32.3961    78.0347 </r>
       <r>    -3.8992    32.5104    80.0589 </r>
       <r>    -3.8370    33.3983    82.1383 </r>
       <r>    -3.7747    34.6742    84.2972 </r>
       <r>    -3.7124    35.5233    86.5089 </r>
       <r>    -3.6502    35.2082    88.7010 </r>
       <r>    -3.5879    33.3743    90.7790 </r>
       <r>    -3.5257    30.1604    92.6568 </r>
       <r>    -3.4634    26.1784    94.2867 </r>
       <r>    -3.4011    22.3012    95.6752 </r>
       <r>    -3.3389    19.2947    96.8766 </r>
       <r>    -3.2766    17.5244    97.9677 </r>
       <r>    -3.2144    16.9763    99.0246 </r>
       <r>    -3.1521    17.5573   100.1178 </r>
       <r>    -3.0898    19.2662   101.3173 </r>
       <r>    -3.0276    21.9276   102.6826 </r>
       <r>    -2.9653    24.8515   104.2299 </r>
       <r>    -2.9030    27.0358   105.9132 </r>
       <r>    -2.8408    27.7987   107.6440 </r>
       <r>    -2.7785    27.1243   109.3328 </r>
       <r>    -2.7163    25.5031   110.9206 </r>
       <r>    -2.6540    23.6562   112.3935 </r>
       <r>    -2.5917    22.2767   113.7805 </r>
       <r>    -2.5295    21.7043   115.1318 </r>
       <r>    -2.4672    21.8005   116.4892 </r>
       <r>    -2.4050    22.2141   117.8723 </r>
       <r>    -2.3427    22.6977   119.2855 </r>
       <r>    -2.2804    23.2052   120.7303 </r>
       <r>    -2.2182    23.8508   122.2152 </r>
       <r>    -2.1559    24.7456   123.7559 </r>
       <r>    -2.0936    25.7995   125.3623 </r>
       <r>    -2.0314    26.7990   127.0308 </r>
       <r>    -1.9691    27.6658   128.7533 </r>
       <r>    -1.9069    28.3720   130.5198 </r>
       <r>    -1.8446    28.5985   132.3004 </r>
       <r>    -1.7823    27.8690   134.0356 </r>
       <r>    -1.7201    26.1795   135.6656 </r>
       <r>    -1.6578    24.1579   137.1697 </r>
       <r>    -1.5956    22.4017   138.5644 </r>
       <r>    -1.5333    20.9723   139.8702 </r>
       <r>    -1.4710    19.8184   141.1041 </r>
       <r>    -1.4088    19.4314   142.3140 </r>
       <r>    -1.3465    20.5922   143.5961 </r>
       <r>    -1.2842    23.3832   145.0520 </r>
       <r>    -1.2220    26.8136   146.7214 </r>
       <r>    -1.1597    29.6345   148.5665 </r>
       <r>    -1.0975    31.3081   150.5158 </r>
       <r>    -1.0352    32.0694   152.5125 </r>
       <r>    -0.9729    32.3820   154.5287 </r>
       <r>    -0.9107    32.5326   156.5542 </r>
       <r>    -0.8484    32.4211   158.5728 </r>
       <r>    -0.7861    31.5248   160.5356 </r>
       <r>    -0.7239    29.3754   162.3645 </r>
       <r>    -0.6616    26.2515   163.9990 </r>
       <r>    -0.5994    23.0618   165.4349 </r>
       <r>    -0.5371    20.3647   166.7028 </r>
       <r>    -0.4748    17.8572   167.8146 </r>
       <r>    -0.4126    15.0356   168.7508 </r>
       <r>    -0.3503    12.0074   169.4984 </r>
       <r>    -0.2881     9.3706   170.0818 </r>
       <r>    -0.2258     7.5465   170.5516 </r>
       <r>    -0.1635     6.5342   170.9585 </r>
       <r>    -0.1013     6.1560   171.3418 </r>
       <r>    -0.0390     6.1916   171.7273 </r>
       <r>     0.0233     6.2790   172.1182 </r>
       <r>     0.0855     6.0256   172.4934 </r>
       <r>     0.1478     5.3937   172.8292 </r>
       <r>     0.2100     4.8017   173.1281 </r>
       <r>     0.2723     4.6616   173.4184 </r>
       <r>     0.3346     4.8793   173.7222 </r>
       <r>     0.3968     4.9496   174.0303 </r>
       <r>     0.4591     4.5390   174.3130 </r>
       <r>     0.5213     3.8776   174.5544 </r>
       <r>     0.5836     3.5426   174.7749 </r>
       <r>     0.6459     3.9189   175.0189 </r>
       <r>     0.7081     4.9056   175.3244 </r>
       <r>     0.7704     6.0579   175.7016 </r>
       <r>     0.8327     6.8919   176.1307 </r>
       <r>     0.8949     7.1007   176.5728 </r>
       <r>     0.9572     6.6709   176.9881 </r>
       <r>     1.0194     5.8758   177.3539 </r>
       <r>     1.0817     5.0739   177.6698 </r>
       <r>     1.1440     4.4618   177.9476 </r>
       <r>     1.2062     4.0346   178.1989 </r>
       <r>     1.2685     3.7464   178.4321 </r>
       <r>     1.3307     3.6367   178.6585 </r>
       <r>     1.3930     3.7834   178.8941 </r>
       <r>     1.4553     4.1648   179.1534 </r>
       <r>     1.5175     4.6293   179.4416 </r>
       <r>     1.5798     5.0503   179.7561 </r>
       <r>     1.6421     5.4652   180.0963 </r>
       <r>     1.7043     5.9479   180.4667 </r>
       <r>     1.7666     6.3391   180.8614 </r>
       <r>     1.8288     6.2793   181.2523 </r>
       <r>     1.8911     5.6334   181.6031 </r>
       <r>     1.9534     4.7778   181.9005 </r>
       <r>     2.0156     4.3136   182.1691 </r>
       <r>     2.0779     4.5099   182.4499 </r>
       <r>     2.1401     5.0894   182.7668 </r>
       <r>     2.2024     5.5270   183.1109 </r>
       <r>     2.2647     5.5221   183.4547 </r>
       <r>     2.3269     5.2173   183.7796 </r>
       <r>     2.3892     4.9737   184.0892 </r>
       <r>     2.4515     4.9192   184.3955 </r>
       <r>     2.5137     4.7765   184.6929 </r>
       <r>     2.5760     4.2271   184.9561 </r>
       <r>     2.6382     3.4072   185.1682 </r>
       <r>     2.7005     2.9225   185.3502 </r>
       <r>     2.7628     3.3308   185.5576 </r>
       <r>     2.8250     4.6045   185.8443 </r>
       <r>     2.8873     6.0571   186.2214 </r>
       <r>     2.9496     6.8109   186.6454 </r>
       <r>     3.0118     6.4421   187.0465 </r>
       <r>     3.0741     5.2545   187.3737 </r>
       <r>     3.1363     3.9711   187.6209 </r>
       <r>     3.1986     3.1916   187.8196 </r>
       <r>     3.2609     3.0847   188.0117 </r>
       <r>     3.3231     3.4354   188.2256 </r>
       <r>     3.3854     3.8759   188.4669 </r>
       <r>     3.4476     4.1313   188.7241 </r>
       <r>     3.5099     4.1297   188.9813 </r>
       <r>     3.5722     3.9092   189.2246 </r>
       <r>     3.6344     3.5167   189.4436 </r>
       <r>     3.6967     3.1036   189.6368 </r>
       <r>     3.7590     2.9957   189.8234 </r>
       <r>     3.8212     3.4226   190.0365 </r>
       <r>     3.8835     4.1710   190.2961 </r>
       <r>     3.9457     4.6692   190.5869 </r>
       <r>     4.0080     4.4660   190.8649 </r>
       <r>     4.0703     3.6019   191.0892 </r>
       <r>     4.1325     2.5454   191.2477 </r>
       <r>     4.1948     1.8055   191.3601 </r>
       <r>     4.2570     1.5857   191.4588 </r>
       <r>     4.3193     1.7400   191.5671 </r>
       <r>     4.3816     1.9582   191.6891 </r>
       <r>     4.4438     1.9608   191.8111 </r>
       <r>     4.5061     1.6282   191.9125 </r>
       <r>     4.5684     1.0566   191.9783 </r>
       <r>     4.6306     0.4808   192.0082 </r>
       <r>     4.6929     0.0946   192.0141 </r>
       <r>     4.7551    -0.0653   192.0101 </r>
       <r>     4.8174    -0.0813   192.0050 </r>
       <r>     4.8797    -0.0496   192.0019 </r>
       <r>     4.9419    -0.0213   192.0006 </r>
       <r>     5.0042    -0.0070   192.0001 </r>
       <r>     5.0664    -0.0018   192.0000 </r>
       <r>     5.1287    -0.0004   192.0000 </r>
       <r>     5.1910    -0.0001   192.0000 </r>
       <r>     5.2532    -0.0000   192.0000 </r>
       <r>     5.3155    -0.0000   192.0000 </r>
       <r>     5.3778    -0.0000   192.0000 </r>
       <r>     5.4400    -0.0000   192.0000 </r>
       <r>     5.5023    -0.0000   192.0000 </r>
       <r>     5.5645    -0.0000   192.0000 </r>
       <r>     5.6268    -0.0000   192.0000 </r>
       <r>     5.6891    -0.0000   192.0000 </r>
       <r>     5.7513    -0.0000   192.0000 </r>
       <r>     5.8136     0.0000   192.0000 </r>
       <r>     5.8759     0.0000   192.0000 </r>
       <r>     5.9381     0.0000   192.0000 </r>
       <r>     6.0004     0.0000   192.0000 </r>
       <r>     6.0626     0.0000   192.0000 </r>
       <r>     6.1249     0.0000   192.0000 </r>
       <r>     6.1872     0.0000   192.0000 </r>
       <r>     6.2494     0.0000   192.0000 </r>
       <r>     6.3117     0.0000   192.0000 </r>
       <r>     6.3739     0.0000   192.0000 </r>
       <r>     6.4362     0.0000   192.0000 </r>
       <r>     6.4985     0.0000   192.0000 </r>
      </set>
     </set>
    </array>
   </total>
  </dos>
 </calculation>
 <structure name="finalpos" >
  <crystal>
   <varray name="basis" >
    <v>       5.55785930       0.00000000       0.00000000 </v>
    <v>       2.77892965       4.81324734       0.00000000 </v>
    <v>       0.00000000       0.00000000      30.80695967 </v>
   </varray>
   <i name="volume">    824.12780743 </i>
   <varray name="rec_basis" >
    <v>       0.17992539      -0.10387997       0.00000000 </v>
    <v>       0.00000000       0.20775994       0.00000000 </v>
    <v>       0.00000000       0.00000000       0.03246020 </v>
   </varray>
  </crystal>
  <varray name="positions" >
   <v>       0.00000000       0.00000000       0.38952237 </v>
   <v>       0.50000000       0.00000000       0.38952237 </v>
   <v>       0.00000000       0.50000000       0.38952237 </v>
   <v>       0.50000000       0.50000000       0.38952237 </v>
   <v>       0.16666667       0.16666667       0.46468540 </v>
   <v>       0.66666667       0.16666667       0.46468540 </v>
   <v>       0.16666667       0.66666667       0.46468540 </v>
   <v>       0.66666667       0.66666667       0.46468540 </v>
   <v>       0.83333333       0.33333333       0.53920296 </v>
   <v>       0.33333333       0.33333333       0.53920296 </v>
   <v>       0.83333333       0.83333333       0.53920296 </v>
   <v>       0.33333333       0.83333333       0.53920296 </v>
   <v>       0.50000000       0.00000000       0.61486043 </v>
   <v>       0.00000000       0.50000000       0.61486043 </v>
   <v>       0.50000000       0.50000000       0.61486043 </v>
   <v>       0.00000000       0.00000000       0.61486043 </v>
  </varray>
  <varray name="selective"  type="logical" >
   <v type="logical" >  F  F  F </v>
   <v type="logical" >  F  F  F </v>
   <v type="logical" >  F  F  F </v>
   <v type="logical" >  F  F  F </v>
   <v type="logical" >  T  T  T </v>
   <v type="logical" >  T  T  T </v>
   <v type="logical" >  T  T  T </v>
   <v type="logical" >  T  T  T </v>
   <v type="logical" >  T  T  T </v>
   <v type="logical" >  T  T  T </v>
   <v type="logical" >  T  T  T </v>
   <v type="logical" >  T  T  T </v>
   <v type="logical" >  T  T  T </v>
   <v type="logical" >  T  T  T </v>
   <v type="logical" >  T  T  T </v>
   <v type="logical" >  T  T  T </v>
  </varray>
  <nose>
   <v>      -3.00000000       0.00000000       0.00010000       0.00010000 </v>
  </nose>
 </structure>
</modeling>
