   17   17    1    1
  0.4847811E+02  0.5557859E-09  0.5557859E-09  0.3080696E-08  0.5000000E-15
  1.000000000000000E-004
  CAR 
 unknown system                          
    161     52     96
 
  0.6250000E-01  0.6250000E-01  0.0000000E+00  0.2083333E-01
    1      -10.060845   1.000000
    2       -8.834311   1.000000
    3       -7.767473   1.000000
    4       -7.618642   1.000000
    5       -7.329052   1.000000
    6       -7.299873   1.000000
    7       -7.292995   1.000000
    8       -7.168389   1.000000
    9       -7.143174   1.000000
   10       -7.135178   1.000000
   11       -6.761801   1.000000
   12       -6.693789   1.000000
   13       -6.679445   1.000000
   14       -6.655183   1.000000
   15       -6.647611   1.000000
   16       -6.508452   1.000000
   17       -6.476358   1.000000
   18       -6.465464   1.000000
   19       -6.417518   1.000000
   20       -5.923213   1.000000
   21       -5.702294   1.000000
   22       -5.681362   1.000000
   23       -5.430862   1.000000
   24       -4.861405   1.000000
   25       -4.838633   1.000000
   26       -4.710315   1.000000
   27       -4.598063   1.000000
   28       -4.581592   1.000000
   29       -4.515353   1.000000
   30       -4.458793   1.000000
   31       -4.306168   1.000000
   32       -4.194763   1.000000
   33       -4.154878   1.000000
   34       -4.048241   1.000000
   35       -4.028860   1.000000
   36       -3.920442   1.000000
   37       -3.877382   1.000000
   38       -3.866393   1.000000
   39       -3.795950   1.000000
   40       -3.768124   1.000000
   41       -3.731537   1.000000
   42       -3.693856   1.000000
   43       -3.417112   1.000000
   44       -3.404371   1.000000
   45       -3.375888   1.000000
   46       -3.317301   1.000000
   47       -3.024953   1.000000
   48       -2.960138   1.000000
   49       -2.838027   1.000000
   50       -2.786133   1.000000
   51       -2.645874   1.000000
   52       -2.336803   1.000000
   53       -2.207388   1.000000
   54       -2.194325   1.000000
   55       -2.097751   1.000000
   56       -2.058326   1.000000
   57       -1.783128   1.000000
   58       -1.699086   1.000000
   59       -1.646633   1.000000
   60       -1.587225   1.000000
   61       -1.495064   1.000000
   62       -1.478880   1.000000
   63       -1.417797   1.000002
   64       -1.320747   1.000043
   65       -1.138697   1.003633
   66       -1.025080   1.020513
   67       -0.972970   1.031946
   68       -0.955000   1.034563
   69       -0.888659   1.022172
   70       -0.853124   0.989010
   71       -0.755162   0.746124
   72       -0.725823   0.633070
   73       -0.691335   0.489025
   74       -0.640195   0.281474
   75       -0.596620   0.137379
   76       -0.516610  -0.009007
   77       -0.468650  -0.033760
   78       -0.434359  -0.034714
   79       -0.353467  -0.018447
   80       -0.326200  -0.012991
   81       -0.248089  -0.003560
   82       -0.172706  -0.000711
   83       -0.109082  -0.000142
   84       -0.072391  -0.000051
   85       -0.050780  -0.000027
   86        0.007127  -0.000004
   87        0.351394  -0.000000
   88        0.477784  -0.000000
   89        1.296265  -0.000000
   90        1.477148  -0.000000
   91        1.699468  -0.000000
   92        1.742175  -0.000000
   93        1.753731  -0.000000
   94        1.900830  -0.000000
   95        2.496544  -0.000000
   96        2.715664  -0.000000
 
 -0.6250000E-01  0.1040834E-16  0.0000000E+00  0.1041667E-01
    1      -10.060866   1.000000
    2       -8.834329   1.000000
    3       -7.767498   1.000000
    4       -7.618669   1.000000
    5       -7.324868   1.000000
    6       -7.311728   1.000000
    7       -7.285352   1.000000
    8       -7.167039   1.000000
    9       -7.149429   1.000000
   10       -7.130556   1.000000
   11       -6.761841   1.000000
   12       -6.698027   1.000000
   13       -6.673703   1.000000
   14       -6.658987   1.000000
   15       -6.644632   1.000000
   16       -6.509512   1.000000
   17       -6.481198   1.000000
   18       -6.458905   1.000000
   19       -6.418463   1.000000
   20       -5.923348   1.000000
   21       -5.700436   1.000000
   22       -5.683058   1.000000
   23       -5.431383   1.000000
   24       -4.854971   1.000000
   25       -4.845192   1.000000
   26       -4.709993   1.000000
   27       -4.595797   1.000000
   28       -4.586351   1.000000
   29       -4.512568   1.000000
   30       -4.458713   1.000000
   31       -4.305690   1.000000
   32       -4.201244   1.000000
   33       -4.149572   1.000000
   34       -4.042376   1.000000
   35       -4.034063   1.000000
   36       -3.913386   1.000000
   37       -3.885815   1.000000
   38       -3.868112   1.000000
   39       -3.788607   1.000000
   40       -3.772511   1.000000
   41       -3.735297   1.000000
   42       -3.691773   1.000000
   43       -3.415389   1.000000
   44       -3.403348   1.000000
   45       -3.377604   1.000000
   46       -3.316476   1.000000
   47       -3.038594   1.000000
   48       -2.955487   1.000000
   49       -2.850556   1.000000
   50       -2.735517   1.000000
   51       -2.674883   1.000000
   52       -2.333481   1.000000
   53       -2.204494   1.000000
   54       -2.193402   1.000000
   55       -2.099438   1.000000
   56       -2.054197   1.000000
   57       -1.768230   1.000000
   58       -1.745947   1.000000
   59       -1.607169   1.000000
   60       -1.586587   1.000000
   61       -1.501636   1.000000
   62       -1.483968   1.000000
   63       -1.397239   1.000004
   64       -1.375306   1.000008
   65       -1.116802   1.005430
   66       -1.038822   1.017494
   67       -0.965768   1.033154
   68       -0.930048   1.035139
   69       -0.903341   1.029347
   70       -0.804528   0.897805
   71       -0.796890   0.878119
   72       -0.710706   0.570714
   73       -0.704979   0.546678
   74       -0.636103   0.266286
   75       -0.585423   0.107443
   76       -0.520070  -0.005714
   77       -0.495554  -0.024263
   78       -0.424658  -0.033537
   79       -0.368406  -0.021794
   80       -0.293748  -0.007971
   81       -0.257814  -0.004274
   82       -0.181138  -0.000866
   83       -0.103694  -0.000122
   84       -0.090732  -0.000085
   85       -0.052123  -0.000028
   86        0.011742  -0.000004
   87        0.385252  -0.000000
   88        0.451448  -0.000000
   89        1.295875  -0.000000
   90        1.481403  -0.000000
   91        1.708933  -0.000000
   92        1.709293  -0.000000
   93        1.817740  -0.000000
   94        1.852842  -0.000000
   95        2.542512  -0.000000
   96        2.688877  -0.000000
 
  0.1875000E+00  0.6250000E-01  0.0000000E+00  0.2083333E-01
    1       -9.856851   1.000000
    2       -8.634959   1.000000
    3       -7.563142   1.000000
    4       -7.424746   1.000000
    5       -7.307178   1.000000
    6       -7.229655   1.000000
    7       -7.112341   1.000000
    8       -7.082143   1.000000
    9       -7.032117   1.000000
   10       -6.960487   1.000000
   11       -6.675513   1.000000
   12       -6.613955   1.000000
   13       -6.579893   1.000000
   14       -6.563667   1.000000
   15       -6.518250   1.000000
   16       -6.395304   1.000000
   17       -6.357783   1.000000
   18       -6.290520   1.000000
   19       -6.255203   1.000000
   20       -5.879405   1.000000
   21       -5.635209   1.000000
   22       -5.622153   1.000000
   23       -5.387835   1.000000
   24       -4.878772   1.000000
   25       -4.835960   1.000000
   26       -4.749187   1.000000
   27       -4.589325   1.000000
   28       -4.515618   1.000000
   29       -4.484838   1.000000
   30       -4.445882   1.000000
   31       -4.396872   1.000000
   32       -4.314382   1.000000
   33       -4.059754   1.000000
   34       -4.009298   1.000000
   35       -4.004307   1.000000
   36       -3.967756   1.000000
   37       -3.885975   1.000000
   38       -3.831371   1.000000
   39       -3.811784   1.000000
   40       -3.763963   1.000000
   41       -3.746205   1.000000
   42       -3.598087   1.000000
   43       -3.581892   1.000000
   44       -3.546845   1.000000
   45       -3.501622   1.000000
   46       -3.459937   1.000000
   47       -3.245607   1.000000
   48       -3.114438   1.000000
   49       -2.892247   1.000000
   50       -2.796411   1.000000
   51       -2.637110   1.000000
   52       -2.617808   1.000000
   53       -2.360245   1.000000
   54       -2.306289   1.000000
   55       -2.207123   1.000000
   56       -2.115891   1.000000
   57       -2.006058   1.000000
   58       -1.843602   1.000000
   59       -1.809718   1.000000
   60       -1.767614   1.000000
   61       -1.743862   1.000000
   62       -1.678564   1.000000
   63       -1.650806   1.000000
   64       -1.561488   1.000000
   65       -1.510989   1.000000
   66       -1.442273   1.000001
   67       -1.331214   1.000032
   68       -1.177609   1.001654
   69       -1.081578   1.009710
   70       -1.006991   1.024672
   71       -0.959931   1.033984
   72       -0.933496   1.035342
   73       -0.897522   1.026892
   74       -0.847262   0.981020
   75       -0.797436   0.879574
   76       -0.746533   0.714278
   77       -0.692425   0.493633
   78       -0.668251   0.392333
   79       -0.629522   0.242505
   80       -0.512847  -0.012323
   81       -0.460596  -0.034896
   82       -0.432260  -0.034499
   83       -0.354593  -0.018692
   84       -0.317573  -0.011492
   85       -0.238046  -0.002929
   86        0.269259  -0.000000
   87        0.338215  -0.000000
   88        0.591568  -0.000000
   89        0.919153  -0.000000
   90        1.093663  -0.000000
   91        1.368912  -0.000000
   92        1.603634  -0.000000
   93        2.249023  -0.000000
   94        2.532060  -0.000000
   95        2.775974  -0.000000
   96        3.144752  -0.000000
 
  0.1250000E+00  0.1875000E+00  0.0000000E+00  0.2083333E-01
    1       -9.856680   1.000000
    2       -8.634809   1.000000
    3       -7.562952   1.000000
    4       -7.424680   1.000000
    5       -7.307004   1.000000
    6       -7.226944   1.000000
    7       -7.114967   1.000000
    8       -7.080944   1.000000
    9       -7.028696   1.000000
   10       -6.962494   1.000000
   11       -6.675407   1.000000
   12       -6.610257   1.000000
   13       -6.573593   1.000000
   14       -6.569837   1.000000
   15       -6.524724   1.000000
   16       -6.392072   1.000000
   17       -6.358130   1.000000
   18       -6.291683   1.000000
   19       -6.258233   1.000000
   20       -5.877816   1.000000
   21       -5.645534   1.000000
   22       -5.613208   1.000000
   23       -5.383558   1.000000
   24       -4.892645   1.000000
   25       -4.818233   1.000000
   26       -4.749971   1.000000
   27       -4.586325   1.000000
   28       -4.528691   1.000000
   29       -4.483728   1.000000
   30       -4.434218   1.000000
   31       -4.409021   1.000000
   32       -4.301010   1.000000
   33       -4.067055   1.000000
   34       -4.013461   1.000000
   35       -4.010625   1.000000
   36       -3.949717   1.000000
   37       -3.898404   1.000000
   38       -3.850073   1.000000
   39       -3.794950   1.000000
   40       -3.749707   1.000000
   41       -3.739115   1.000000
   42       -3.615923   1.000000
   43       -3.578218   1.000000
   44       -3.548336   1.000000
   45       -3.509468   1.000000
   46       -3.443799   1.000000
   47       -3.199245   1.000000
   48       -3.145332   1.000000
   49       -2.906237   1.000000
   50       -2.846591   1.000000
   51       -2.645070   1.000000
   52       -2.600482   1.000000
   53       -2.349147   1.000000
   54       -2.308344   1.000000
   55       -2.230016   1.000000
   56       -2.099252   1.000000
   57       -1.992205   1.000000
   58       -1.863258   1.000000
   59       -1.815356   1.000000
   60       -1.772493   1.000000
   61       -1.706931   1.000000
   62       -1.683724   1.000000
   63       -1.649407   1.000000
   64       -1.568537   1.000000
   65       -1.518739   1.000000
   66       -1.416092   1.000002
   67       -1.346461   1.000020
   68       -1.166531   1.002089
   69       -1.100991   1.007121
   70       -1.024271   1.020696
   71       -0.973238   1.031898
   72       -0.914716   1.032823
   73       -0.879108   1.015629
   74       -0.848054   0.982146
   75       -0.771642   0.802925
   76       -0.754945   0.745340
   77       -0.712139   0.576698
   78       -0.660041   0.358864
   79       -0.598024   0.141354
   80       -0.534190   0.010286
   81       -0.476552  -0.031953
   82       -0.442960  -0.035324
   83       -0.365866  -0.021213
   84       -0.274619  -0.005780
   85       -0.215711  -0.001858
   86        0.278001  -0.000000
   87        0.313078  -0.000000
   88        0.585313  -0.000000
   89        0.918979  -0.000000
   90        1.078901  -0.000000
   91        1.367373  -0.000000
   92        1.599413  -0.000000
   93        2.258030  -0.000000
   94        2.524595  -0.000000
   95        2.770660  -0.000000
   96        3.143237  -0.000000
 
 -0.6250000E-01  0.1250000E+00  0.0000000E+00  0.2083333E-01
    1       -9.856783   1.000000
    2       -8.634895   1.000000
    3       -7.563059   1.000000
    4       -7.424781   1.000000
    5       -7.306597   1.000000
    6       -7.228923   1.000000
    7       -7.113698   1.000000
    8       -7.080955   1.000000
    9       -7.031154   1.000000
   10       -6.961556   1.000000
   11       -6.675257   1.000000
   12       -6.612885   1.000000
   13       -6.579529   1.000000
   14       -6.562012   1.000000
   15       -6.523067   1.000000
   16       -6.391495   1.000000
   17       -6.359482   1.000000
   18       -6.294283   1.000000
   19       -6.253386   1.000000
   20       -5.878795   1.000000
   21       -5.642336   1.000000
   22       -5.615579   1.000000
   23       -5.386083   1.000000
   24       -4.883970   1.000000
   25       -4.830743   1.000000
   26       -4.748142   1.000000
   27       -4.585838   1.000000
   28       -4.520841   1.000000
   29       -4.488045   1.000000
   30       -4.442898   1.000000
   31       -4.396738   1.000000
   32       -4.311512   1.000000
   33       -4.066561   1.000000
   34       -4.010755   1.000000
   35       -4.005895   1.000000
   36       -3.951688   1.000000
   37       -3.889426   1.000000
   38       -3.850020   1.000000
   39       -3.813100   1.000000
   40       -3.749340   1.000000
   41       -3.741774   1.000000
   42       -3.602564   1.000000
   43       -3.579914   1.000000
   44       -3.543813   1.000000
   45       -3.514127   1.000000
   46       -3.450258   1.000000
   47       -3.227339   1.000000
   48       -3.124781   1.000000
   49       -2.895064   1.000000
   50       -2.822535   1.000000
   51       -2.637538   1.000000
   52       -2.610203   1.000000
   53       -2.346536   1.000000
   54       -2.322496   1.000000
   55       -2.211832   1.000000
   56       -2.108165   1.000000
   57       -2.003352   1.000000
   58       -1.843680   1.000000
   59       -1.804764   1.000000
   60       -1.782201   1.000000
   61       -1.739716   1.000000
   62       -1.703932   1.000000
   63       -1.620111   1.000000
   64       -1.569887   1.000000
   65       -1.500485   1.000000
   66       -1.420158   1.000002
   67       -1.342713   1.000022
   68       -1.175458   1.001732
   69       -1.078926   1.010110
   70       -1.029492   1.019524
   71       -0.959552   1.034033
   72       -0.942716   1.035403
   73       -0.878496   1.015155
   74       -0.834276   0.960477
   75       -0.795797   0.875184
   76       -0.732059   0.658132
   77       -0.721915   0.617142
   78       -0.659978   0.358611
   79       -0.623413   0.221188
   80       -0.540633   0.019032
   81       -0.480488  -0.030769
   82       -0.445634  -0.035416
   83       -0.368467  -0.021808
   84       -0.265661  -0.004932
   85       -0.213790  -0.001784
   86        0.283332  -0.000000
   87        0.317144  -0.000000
   88        0.592125  -0.000000
   89        0.919324  -0.000000
   90        1.084995  -0.000000
   91        1.364790  -0.000000
   92        1.603658  -0.000000
   93        2.254206  -0.000000
   94        2.520791  -0.000000
   95        2.778007  -0.000000
   96        3.154236  -0.000000
 
  0.3125000E+00  0.6250000E-01  0.0000000E+00  0.2083333E-01
    1       -9.403340   1.000000
    2       -8.204783   1.000000
    3       -7.407268   1.000000
    4       -7.133937   1.000000
    5       -7.014538   1.000000
    6       -7.001228   1.000000
    7       -6.958258   1.000000
    8       -6.779863   1.000000
    9       -6.734745   1.000000
   10       -6.652215   1.000000
   11       -6.574470   1.000000
   12       -6.450323   1.000000
   13       -6.348985   1.000000
   14       -6.319121   1.000000
   15       -6.225395   1.000000
   16       -6.187311   1.000000
   17       -6.042900   1.000000
   18       -5.960745   1.000000
   19       -5.895668   1.000000
   20       -5.719155   1.000000
   21       -5.501729   1.000000
   22       -5.483145   1.000000
   23       -5.302875   1.000000
   24       -4.985577   1.000000
   25       -4.916471   1.000000
   26       -4.813212   1.000000
   27       -4.723631   1.000000
   28       -4.638149   1.000000
   29       -4.592593   1.000000
   30       -4.389274   1.000000
   31       -4.361036   1.000000
   32       -4.279295   1.000000
   33       -4.183109   1.000000
   34       -4.161961   1.000000
   35       -4.120093   1.000000
   36       -3.970715   1.000000
   37       -3.943158   1.000000
   38       -3.899090   1.000000
   39       -3.817436   1.000000
   40       -3.806947   1.000000
   41       -3.740909   1.000000
   42       -3.688349   1.000000
   43       -3.657542   1.000000
   44       -3.630597   1.000000
   45       -3.566043   1.000000
   46       -3.492168   1.000000
   47       -3.384310   1.000000
   48       -3.223605   1.000000
   49       -3.084048   1.000000
   50       -2.970270   1.000000
   51       -2.916182   1.000000
   52       -2.799982   1.000000
   53       -2.712660   1.000000
   54       -2.670486   1.000000
   55       -2.618271   1.000000
   56       -2.540738   1.000000
   57       -2.511392   1.000000
   58       -2.475857   1.000000
   59       -2.390969   1.000000
   60       -2.325015   1.000000
   61       -2.233678   1.000000
   62       -2.104582   1.000000
   63       -2.016047   1.000000
   64       -1.955153   1.000000
   65       -1.856624   1.000000
   66       -1.787137   1.000000
   67       -1.698356   1.000000
   68       -1.586213   1.000000
   69       -1.532910   1.000000
   70       -1.452540   1.000001
   71       -1.409076   1.000003
   72       -1.318673   1.000046
   73       -1.223215   1.000587
   74       -1.184278   1.001433
   75       -1.105054   1.006652
   76       -1.067106   1.012031
   77       -0.984423   1.029709
   78       -0.924816   1.034621
   79       -0.821155   0.935568
   80       -0.774110   0.810931
   81       -0.702933   0.538055
   82       -0.680424   0.442998
   83       -0.533513   0.009422
   84       -0.421498  -0.033061
   85       -0.374716  -0.023248
   86       -0.017649  -0.000009
   87        0.384196  -0.000000
   88        0.673553  -0.000000
   89        0.988356  -0.000000
   90        1.476025  -0.000000
   91        1.837379  -0.000000
   92        1.956884  -0.000000
   93        2.333822  -0.000000
   94        2.502114  -0.000000
   95        3.203553  -0.000000
   96        3.574772  -0.000000
 
  0.2500000E+00  0.3125000E+00  0.0000000E+00  0.2083333E-01
    1       -9.402795   1.000000
    2       -8.204188   1.000000
    3       -7.406783   1.000000
    4       -7.130497   1.000000
    5       -7.017407   1.000000
    6       -6.998506   1.000000
    7       -6.955628   1.000000
    8       -6.778488   1.000000
    9       -6.732178   1.000000
   10       -6.653067   1.000000
   11       -6.576086   1.000000
   12       -6.447042   1.000000
   13       -6.347462   1.000000
   14       -6.315507   1.000000
   15       -6.232640   1.000000
   16       -6.193110   1.000000
   17       -6.047403   1.000000
   18       -5.961247   1.000000
   19       -5.903212   1.000000
   20       -5.710018   1.000000
   21       -5.519806   1.000000
   22       -5.468170   1.000000
   23       -5.290721   1.000000
   24       -4.985492   1.000000
   25       -4.913864   1.000000
   26       -4.801701   1.000000
   27       -4.726464   1.000000
   28       -4.661806   1.000000
   29       -4.560369   1.000000
   30       -4.383454   1.000000
   31       -4.350840   1.000000
   32       -4.287353   1.000000
   33       -4.208657   1.000000
   34       -4.166215   1.000000
   35       -4.111529   1.000000
   36       -3.989353   1.000000
   37       -3.924646   1.000000
   38       -3.902100   1.000000
   39       -3.848695   1.000000
   40       -3.770610   1.000000
   41       -3.745248   1.000000
   42       -3.689234   1.000000
   43       -3.668537   1.000000
   44       -3.612799   1.000000
   45       -3.543440   1.000000
   46       -3.477066   1.000000
   47       -3.371288   1.000000
   48       -3.229069   1.000000
   49       -3.196336   1.000000
   50       -2.997715   1.000000
   51       -2.913221   1.000000
   52       -2.793413   1.000000
   53       -2.694091   1.000000
   54       -2.656079   1.000000
   55       -2.611768   1.000000
   56       -2.525190   1.000000
   57       -2.518440   1.000000
   58       -2.486518   1.000000
   59       -2.409058   1.000000
   60       -2.356656   1.000000
   61       -2.238056   1.000000
   62       -2.079072   1.000000
   63       -2.037778   1.000000
   64       -1.955030   1.000000
   65       -1.829783   1.000000
   66       -1.803924   1.000000
   67       -1.750007   1.000000
   68       -1.563662   1.000000
   69       -1.495163   1.000000
   70       -1.428759   1.000001
   71       -1.333818   1.000029
   72       -1.299635   1.000080
   73       -1.253352   1.000278
   74       -1.193499   1.001169
   75       -1.111376   1.005970
   76       -1.054160   1.014387
   77       -0.964791   1.033303
   78       -0.920270   1.033949
   79       -0.871872   1.009575
   80       -0.757751   0.755412
   81       -0.717632   0.599517
   82       -0.619801   0.208945
   83       -0.584425   0.104926
   84       -0.524072  -0.001604
   85       -0.259644  -0.004421
   86       -0.017259  -0.000009
   87        0.387354  -0.000000
   88        0.662944  -0.000000
   89        0.990118  -0.000000
   90        1.422357  -0.000000
   91        1.844291  -0.000000
   92        1.953884  -0.000000
   93        2.332472  -0.000000
   94        2.504732  -0.000000
   95        3.200682  -0.000000
   96        3.614775  -0.000000
 
 -0.6250000E-01  0.2500000E+00  0.0000000E+00  0.2083333E-01
    1       -9.402960   1.000000
    2       -8.204314   1.000000
    3       -7.406806   1.000000
    4       -7.130692   1.000000
    5       -7.016931   1.000000
    6       -6.998552   1.000000
    7       -6.957694   1.000000
    8       -6.777816   1.000000
    9       -6.731078   1.000000
   10       -6.658406   1.000000
   11       -6.573498   1.000000
   12       -6.448210   1.000000
   13       -6.350317   1.000000
   14       -6.311917   1.000000
   15       -6.235398   1.000000
   16       -6.187240   1.000000
   17       -6.050259   1.000000
   18       -5.961536   1.000000
   19       -5.895963   1.000000
   20       -5.713596   1.000000
   21       -5.522235   1.000000
   22       -5.465272   1.000000
   23       -5.293095   1.000000
   24       -4.984875   1.000000
   25       -4.913030   1.000000
   26       -4.810187   1.000000
   27       -4.723951   1.000000
   28       -4.657124   1.000000
   29       -4.566864   1.000000
   30       -4.372792   1.000000
   31       -4.367947   1.000000
   32       -4.278253   1.000000
   33       -4.198712   1.000000
   34       -4.172714   1.000000
   35       -4.118384   1.000000
   36       -3.991200   1.000000
   37       -3.941151   1.000000
   38       -3.901130   1.000000
   39       -3.837709   1.000000
   40       -3.788427   1.000000
   41       -3.746229   1.000000
   42       -3.676780   1.000000
   43       -3.646311   1.000000
   44       -3.598833   1.000000
   45       -3.546669   1.000000
   46       -3.480225   1.000000
   47       -3.407189   1.000000
   48       -3.227234   1.000000
   49       -3.163785   1.000000
   50       -2.987133   1.000000
   51       -2.906744   1.000000
   52       -2.796429   1.000000
   53       -2.716190   1.000000
   54       -2.651831   1.000000
   55       -2.594826   1.000000
   56       -2.545340   1.000000
   57       -2.507812   1.000000
   58       -2.489877   1.000000
   59       -2.393135   1.000000
   60       -2.353846   1.000000
   61       -2.220458   1.000000
   62       -2.100064   1.000000
   63       -2.014669   1.000000
   64       -1.964915   1.000000
   65       -1.842413   1.000000
   66       -1.784745   1.000000
   67       -1.746134   1.000000
   68       -1.593130   1.000000
   69       -1.470162   1.000000
   70       -1.446712   1.000001
   71       -1.400193   1.000004
   72       -1.323470   1.000040
   73       -1.238112   1.000408
   74       -1.173664   1.001799
   75       -1.076241   1.010526
   76       -1.064332   1.012513
   77       -0.965924   1.033130
   78       -0.923391   1.034433
   79       -0.868937   1.006833
   80       -0.755519   0.747413
   81       -0.694877   0.504009
   82       -0.624628   0.225365
   83       -0.606305   0.165754
   84       -0.522643  -0.003110
   85       -0.266950  -0.005047
   86       -0.000318  -0.000005
   87        0.383244  -0.000000
   88        0.668054  -0.000000
   89        0.987436  -0.000000
   90        1.421657  -0.000000
   91        1.843738  -0.000000
   92        1.965024  -0.000000
   93        2.338433  -0.000000
   94        2.496599  -0.000000
   95        3.201230  -0.000000
   96        3.605155  -0.000000
 
  0.4375000E+00  0.6250000E-01  0.0000000E+00  0.2083333E-01
    1       -8.764847   1.000000
    2       -7.778487   1.000000
    3       -7.650135   1.000000
    4       -7.054236   1.000000
    5       -6.692342   1.000000
    6       -6.628879   1.000000
    7       -6.535401   1.000000
    8       -6.463147   1.000000
    9       -6.428007   1.000000
   10       -6.398638   1.000000
   11       -6.342452   1.000000
   12       -6.188647   1.000000
   13       -6.063148   1.000000
   14       -5.999914   1.000000
   15       -5.939134   1.000000
   16       -5.886421   1.000000
   17       -5.757755   1.000000
   18       -5.606318   1.000000
   19       -5.532528   1.000000
   20       -5.421217   1.000000
   21       -5.297642   1.000000
   22       -5.262802   1.000000
   23       -5.201355   1.000000
   24       -5.120631   1.000000
   25       -5.062372   1.000000
   26       -4.943991   1.000000
   27       -4.885560   1.000000
   28       -4.841117   1.000000
   29       -4.644288   1.000000
   30       -4.611528   1.000000
   31       -4.531863   1.000000
   32       -4.473612   1.000000
   33       -4.381867   1.000000
   34       -4.337844   1.000000
   35       -4.288705   1.000000
   36       -4.158433   1.000000
   37       -4.092565   1.000000
   38       -4.007966   1.000000
   39       -3.943633   1.000000
   40       -3.864408   1.000000
   41       -3.793250   1.000000
   42       -3.735241   1.000000
   43       -3.707175   1.000000
   44       -3.646011   1.000000
   45       -3.559051   1.000000
   46       -3.507959   1.000000
   47       -3.470153   1.000000
   48       -3.415427   1.000000
   49       -3.365294   1.000000
   50       -3.303289   1.000000
   51       -3.266489   1.000000
   52       -3.181047   1.000000
   53       -3.140545   1.000000
   54       -3.100746   1.000000
   55       -2.918062   1.000000
   56       -2.882496   1.000000
   57       -2.820243   1.000000
   58       -2.752825   1.000000
   59       -2.710081   1.000000
   60       -2.684794   1.000000
   61       -2.431338   1.000000
   62       -2.402783   1.000000
   63       -2.280007   1.000000
   64       -2.253578   1.000000
   65       -2.165976   1.000000
   66       -2.085664   1.000000
   67       -2.046000   1.000000
   68       -1.948369   1.000000
   69       -1.893017   1.000000
   70       -1.837634   1.000000
   71       -1.768800   1.000000
   72       -1.699476   1.000000
   73       -1.616696   1.000000
   74       -1.514012   1.000000
   75       -1.383534   1.000006
   76       -1.329227   1.000034
   77       -1.215545   1.000705
   78       -1.033518   1.018637
   79       -0.986769   1.029214
   80       -0.766050   0.784284
   81       -0.728180   0.642596
   82       -0.722310   0.618758
   83       -0.537537   0.014712
   84       -0.425624  -0.033674
   85       -0.345949  -0.016844
   86       -0.257059  -0.004215
   87        0.693549  -0.000000
   88        0.843200  -0.000000
   89        1.099812  -0.000000
   90        1.621166  -0.000000
   91        1.939234  -0.000000
   92        2.116945  -0.000000
   93        2.433190  -0.000000
   94        2.713673  -0.000000
   95        3.499153  -0.000000
   96        3.753058  -0.000000
 
  0.3750000E+00  0.4375000E+00  0.0000000E+00  0.2083333E-01
    1       -8.763510   1.000000
    2       -7.774133   1.000000
    3       -7.653202   1.000000
    4       -7.051684   1.000000
    5       -6.686257   1.000000
    6       -6.626986   1.000000
    7       -6.543545   1.000000
    8       -6.453090   1.000000
    9       -6.423136   1.000000
   10       -6.389402   1.000000
   11       -6.351964   1.000000
   12       -6.188066   1.000000
   13       -6.068856   1.000000
   14       -6.008163   1.000000
   15       -5.926968   1.000000
   16       -5.888274   1.000000
   17       -5.787771   1.000000
   18       -5.587408   1.000000
   19       -5.562512   1.000000
   20       -5.404602   1.000000