       N       E                     dE             d eps       ncg     rms          rms(c)
DAV:   1     0.980391863597E+03    0.98039E+03   -0.55759E+04  9984   0.102E+03
DAV:   2    -0.429970250108E+02   -0.10234E+04   -0.99395E+03 14544   0.250E+02
DAV:   3    -0.101734279805E+03   -0.58737E+02   -0.57085E+02 12480   0.601E+01
DAV:   4    -0.102999801595E+03   -0.12655E+01   -0.12605E+01 14256   0.101E+01
DAV:   5    -0.103032042080E+03   -0.32240E-01   -0.32230E-01 15072   0.128E+00    0.419E+01
DAV:   6    -0.986594533065E+02    0.43726E+01   -0.32858E+01 12192   0.215E+01    0.294E+01
DAV:   7    -0.126382345377E+03   -0.27723E+02   -0.24857E+02 13944   0.650E+01    0.453E+01
DAV:   8    -0.106096507638E+03    0.20286E+02   -0.12634E+02 13008   0.358E+01    0.277E+01
DAV:   9    -0.106145293639E+03   -0.48786E-01   -0.12100E+02 14640   0.399E+01    0.250E+01
DAV:  10    -0.101893420479E+03    0.42519E+01   -0.78511E+01 12864   0.363E+01    0.213E+01
DAV:  11    -0.973006200099E+02    0.45928E+01   -0.24789E+01 14784   0.195E+01    0.107E+01
DAV:  12    -0.970469079650E+02    0.25371E+00   -0.12999E+01 12120   0.110E+01    0.916E+00
DAV:  13    -0.964949738503E+02    0.55193E+00   -0.25530E+00 14976   0.586E+00    0.495E+00
DAV:  14    -0.963329373265E+02    0.16204E+00   -0.18429E+00 13152   0.502E+00    0.337E+00
DAV:  15    -0.963082835430E+02    0.24654E-01   -0.15433E-01 12696   0.148E+00    0.245E+00
DAV:  16    -0.962847610485E+02    0.23522E-01   -0.18605E-01 13824   0.154E+00    0.133E+00
DAV:  17    -0.962788744541E+02    0.58866E-02   -0.77104E-02 12168   0.119E+00    0.884E-01
DAV:  18    -0.962738128864E+02    0.50616E-02   -0.35955E-02 12336   0.680E-01    0.424E-01
DAV:  19    -0.962728791462E+02    0.93374E-03   -0.53988E-03 13056   0.289E-01    0.322E-01
DAV:  20    -0.962725052570E+02    0.37389E-03   -0.18760E-03 12072   0.182E-01    0.219E-01
DAV:  21    -0.962721691996E+02    0.33606E-03   -0.16676E-03 12480   0.148E-01    0.133E-01
DAV:  22    -0.962720766083E+02    0.92591E-04   -0.35723E-04 11712   0.832E-02    0.866E-02
DAV:  23    -0.962720252362E+02    0.51372E-04   -0.14875E-04 11688   0.448E-02    0.562E-02
DAV:  24    -0.962720419932E+02   -0.16757E-04   -0.86774E-05  8808   0.314E-02    0.396E-02
DAV:  25    -0.962720774645E+02   -0.35471E-04   -0.64660E-05  7752   0.288E-02    0.244E-02
DAV:  26    -0.962721678539E+02   -0.90389E-04   -0.10723E-04 10560   0.343E-02    0.393E-02
DAV:  27    -0.962722241319E+02   -0.56278E-04   -0.90204E-05  8040   0.285E-02    0.131E-02
DAV:  28    -0.962722615933E+02   -0.37461E-04   -0.47205E-06  7632   0.767E-03    0.911E-03
DAV:  29    -0.962723328782E+02   -0.71285E-04   -0.10943E-05  7752   0.103E-02    0.994E-03
DAV:  30    -0.962723697989E+02   -0.36921E-04   -0.26652E-06  7752   0.521E-03    0.934E-03
DAV:  31    -0.962723905431E+02   -0.20744E-04   -0.28180E-06  7560   0.472E-03    0.463E-03
DAV:  32    -0.962724153534E+02   -0.24810E-04   -0.17797E-06  7584   0.437E-03    0.333E-03
DAV:  33    -0.962724238390E+02   -0.84856E-05   -0.60288E-07  7344   0.232E-03
   1 F= -.96272339E+02 E0= -.96266459E+02  d E =-.176389E-01
