 vasp.5.4.4.18Apr17-6-g9f103f2a35 (build Apr 28 2017 10:53:45) complex          
  
 executed on             LinuxIFC date 2020.02.16  21:26:11
 running on   24 total cores
 distrk:  each k-point on   24 cores,    1 groups
 distr:  one band on NCORES_PER_BAND=   1 cores,   24 groups


--------------------------------------------------------------------------------------------------------


 INCAR:
 POTCAR:    PAW_PBE Ir 06Sep2000                  
 POTCAR:    PAW_PBE Pt 04Feb2005                  
 POTCAR:    PAW_PBE Au 04Oct2007                  
 POTCAR:    PAW_PBE H 15Jun2001                   

 ----------------------------------------------------------------------------- 
|                                                                             |
|           W    W    AA    RRRRR   N    N  II  N    N   GGGG   !!!           |
|           W    W   A  A   R    R  NN   N  II  NN   N  G    G  !!!           |
|           W    W  A    A  R    R  N N  N  II  N N  N  G       !!!           |
|           W WW W  AAAAAA  RRRRR   N  N N  II  N  N N  G  GGG   !            |
|           WW  WW  A    A  R   R   N   NN  II  N   NN  G    G                |
|           W    W  A    A  R    R  N    N  II  N    N   GGGG   !!!           |
|                                                                             |
|      For optimal performance we recommend to set                            |
|        NCORE= 4 - approx SQRT( number of cores)                             |
|      NCORE specifies how many cores store one orbital (NPAR=cpu/NCORE).     |
|      This setting can  greatly improve the performance of VASP for DFT.     |
|      The default,   NCORE=1            might be grossly inefficient         |
|      on modern multi-core architectures or massively parallel machines.     |
|      Do your own testing !!!!                                               |
|      Unfortunately you need to use the default for GW and RPA calculations. |
|      (for HF NCORE is supported but not extensively tested yet)             |
|                                                                             |
 ----------------------------------------------------------------------------- 

 POTCAR:    PAW_PBE Ir 06Sep2000                  
   SHA256 =  7c6af8d4d487b237782eb51e6f62977b27a1da78c3c96acd1cebefd6c308f120 Ir
   COPYR  = (c) Copyright 06Sep2000 Georg Kresse                                
   COPYR  = This file is part of the software VASP. Any use, copying, and all ot
   COPYR  = If you do not have a valid VASP license, you may not use, copy or di
   VRHFIN =Ir: s1d8                                                             
   LEXCH  = PE                                                                  
   EATOM  =   560.1833 eV,   41.1723 Ry                                         
                                                                                
   TITEL  = PAW_PBE Ir 06Sep2000                                                
   LULTRA =        F    use ultrasoft PP ?                                      
   IUNSCR =        1    unscreen: 0-lin 1-nonlin 2-no                           
   RPACOR =    2.250    partial core radius                                     
   POMASS =  192.220; ZVAL   =    9.000    mass and valenz                      
   RCORE  =    2.600    outmost cutoff radius                                   
   RWIGS  =    2.690; RWIGS  =    1.423    wigner-seitz radius (au A)           
   ENMAX  =  210.864; ENMIN  =  158.148 eV                                      
   RCLOC  =    1.857    cutoff for local pot                                    
   LCOR   =        T    correct aug charges                                     
   LPAW   =        T    paw PP                                                  
   EAUG   =  318.962                                                            
   DEXC   =    0.000                                                            
   RMAX   =    2.667    core radius for proj-oper                               
   RAUG   =    1.300    factor for augmentation sphere                          
   RDEP   =    2.748    radius for radial grids                                 
   RDEPT  =    2.300    core radius for aug-charge                              
                                                                                
   Atomic configuration                                                         
   16 entries                                                                   
     n  l   j            E        occ.                                          
     1  0  0.50    -76100.0449   2.0000                                         
     2  0  0.50    -13308.1683   2.0000                                         
     2  1  1.50    -11558.0021   6.0000                                         
     3  0  0.50     -3110.7274   2.0000                                         
     3  1  1.50     -2599.2109   6.0000                                         
     3  2  2.50     -2037.1515  10.0000                                         
     4  0  0.50      -661.6001   2.0000                                         
     4  1  1.50      -493.8981   6.0000                                         
     4  2  2.50      -288.1909  10.0000                                         
     4  3  3.50       -59.5718  14.0000                                         
     5  0  0.50       -95.3879   2.0000                                         
     5  1  1.50       -52.2747   6.0000                                         
     5  2  2.50        -5.4180   8.0000                                         
     6  0  0.50        -5.5479   1.0000                                         
     6  1  1.50        -6.8029   0.0000                                         
     5  3  2.50        -1.3606   0.0000                                         
   Description                                                                  
     l       E           TYP  RCUT    TYP  RCUT                                 
     2     -5.4179967     23  2.600                                             
     2     -6.7785793     23  2.600                                             
     0     -5.5478636     23  2.600                                             
     0      2.2542272     23  2.600                                             
     1     -2.7211652     23  2.600                                             
     1     20.4087390     23  2.600                                             
  local pseudopotential read in
  partial core-charges read in
  partial kinetic energy density read in
  atomic valenz-charges read in
  non local Contribution for L=           2  read in
    real space projection operators read in
  non local Contribution for L=           2  read in
    real space projection operators read in
  non local Contribution for L=           0  read in
    real space projection operators read in
  non local Contribution for L=           0  read in
    real space projection operators read in
  non local Contribution for L=           1  read in
    real space projection operators read in
  non local Contribution for L=           1  read in
    real space projection operators read in
    PAW grid and wavefunctions read in
 
   number of l-projection  operators is LMAX  =           6
   number of lm-projection operators is LMMAX =          18
 
 POTCAR:    PAW_PBE Pt 04Feb2005                  
   SHA256 =  3ed90460adef76debcff1cfb73ee1349b515b1a3db03439735b44de3a8db7dc8 Pt
   COPYR  = (c) Copyright 04Feb2005 Georg Kresse                                
   COPYR  = This file is part of the software VASP. Any use, copying, and all ot
   COPYR  = If you do not have a valid VASP license, you may not use, copy or di
   VRHFIN =Pt: s1d9                                                             
   LEXCH  = PE                                                                  
   EATOM  =   729.1176 eV,   53.5886 Ry                                         
                                                                                
   TITEL  = PAW_PBE Pt 04Feb2005                                                
   LULTRA =        F    use ultrasoft PP ?                                      
   IUNSCR =        1    unscreen: 0-lin 1-nonlin 2-no                           
   RPACOR =    2.330    partial core radius                                     
   POMASS =  195.080; ZVAL   =   10.000    mass and valenz                      
   RCORE  =    2.600    outmost cutoff radius                                   
   RWIGS  =    2.750; RWIGS  =    1.455    wigner-seitz radius (au A)           
   ENMAX  =  230.283; ENMIN  =  172.712 eV                                      
   ICORE  =        3    local potential                                         
   LCOR   =        T    correct aug charges                                     
   LPAW   =        T    paw PP                                                  
   EAUG   =  358.966                                                            
   DEXC   =    0.000                                                            
   RMAX   =    2.658    core radius for proj-oper                               
   RAUG   =    1.300    factor for augmentation sphere                          
   RDEP   =    2.761    radius for radial grids                                 
   RDEPT  =    2.203    core radius for aug-charge                              
                                                                                
   Atomic configuration                                                         
   16 entries                                                                   
     n  l   j            E        occ.                                          
     1  0  0.50    -78401.1885   2.0000                                         
     2  0  0.50    -13770.7750   2.0000                                         
     2  1  1.50    -11931.0468   6.0000                                         
     3  0  0.50     -3234.7234   2.0000                                         
     3  1  1.50     -2699.2216   6.0000                                         
     3  2  2.50     -2119.5714  10.0000                                         
     4  0  0.50      -695.1528   2.0000                                         
     4  1  1.50      -519.6034   6.0000                                         
     4  2  2.50      -306.6786  10.0000                                         
     4  3  3.50       -70.1041  14.0000                                         
     5  0  0.50      -101.7747   2.0000                                         
     5  1  1.50       -55.9873   6.0000                                         
     5  2  2.50        -6.1423   9.0000                                         
     6  0  0.50        -5.6573   1.0000                                         
     6  1  1.50        -6.8029   0.0000                                         
     5  3  2.50        -1.3606   0.0000                                         
   Description                                                                  
     l       E           TYP  RCUT    TYP  RCUT                                 
     2     -6.1423404     23  2.500                                             
     2     -7.5029230     23  2.500                                             
     0     -5.6573207     23  2.500                                             
     0      0.7416693     23  2.500                                             
     1     -2.7211652     23  2.600                                             
     1     20.4087390     23  2.600                                             
     3     -1.3605826     23  2.500                                             
  local pseudopotential read in
  partial core-charges read in
  partial kinetic energy density read in
  atomic valenz-charges read in
  non local Contribution for L=           2  read in
    real space projection operators read in
  non local Contribution for L=           2  read in
    real space projection operators read in
  non local Contribution for L=           0  read in
    real space projection operators read in
  non local Contribution for L=           0  read in
    real space projection operators read in
  non local Contribution for L=           1  read in
    real space projection operators read in
  non local Contribution for L=           1  read in
    real space projection operators read in
    PAW grid and wavefunctions read in
 
   number of l-projection  operators is LMAX  =           6
   number of lm-projection operators is LMMAX =          18
 
 POTCAR:    PAW_PBE Au 04Oct2007                  
   SHA256 =  d0044ae04e2bdce24051b198fc5c053d722a5bc6fe3c3b100514a13fc5d2db88 Au
   COPYR  = (c) Copyright 04Oct2007 Georg Kresse                                
   COPYR  = This file is part of the software VASP. Any use, copying, and all ot
   COPYR  = If you do not have a valid VASP license, you may not use, copy or di
   VRHFIN =Au: s1d10                                                            
   LEXCH  = PE                                                                  
   EATOM  =   926.0867 eV,   68.0654 Ry                                         
                                                                                
   TITEL  = PAW_PBE Au 04Oct2007                                                
   LULTRA =        F    use ultrasoft PP ?                                      
   IUNSCR =        1    unscreen: 0-lin 1-nonlin 2-no                           
   RPACOR =    2.330    partial core radius                                     
   POMASS =  196.966; ZVAL   =   11.000    mass and valenz                      
   RCORE  =    2.500    outmost cutoff radius                                   
   RWIGS  =    2.840; RWIGS  =    1.503    wigner-seitz radius (au A)           
   ENMAX  =  229.943; ENMIN  =  172.457 eV                                      
   ICORE  =        3    local potential                                         
   LCOR   =        T    correct aug charges                                     
   LPAW   =        T    paw PP                                                  
   EAUG   =  356.670                                                            
   DEXC   =    0.000                                                            
   RMAX   =    2.562    core radius for proj-oper                               
   RAUG   =    1.300    factor for augmentation sphere                          
   RDEP   =    2.598    radius for radial grids                                 
   RDEPT  =    2.193    core radius for aug-charge                              
                                                                                
   Atomic configuration                                                         
   16 entries                                                                   
     n  l   j            E        occ.                                          
     1  0  0.50    -80748.5001   2.0000                                         
     2  0  0.50    -14244.7466   2.0000                                         
     2  1  1.50    -12310.9591   6.0000                                         
     3  0  0.50     -3362.1768   2.0000                                         
     3  1  1.50     -2801.5463   6.0000                                         
     3  2  2.50     -2203.8206  10.0000                                         
     4  0  0.50      -729.8168   2.0000                                         
     4  1  1.50      -546.0527   6.0000                                         
     4  2  2.50      -325.7302  10.0000                                         
     4  3  3.50       -81.1472  14.0000                                         
     5  0  0.50      -108.3201   2.0000                                         
     5  1  1.50       -59.7479   6.0000                                         
     5  2  2.50        -6.8783  10.0000                                         
     6  0  0.50        -5.7602   1.0000                                         
     6  1  1.50        -6.8029   0.0000                                         
     5  3  2.50        -1.3606   0.0000                                         
   Description                                                                  
     l       E           TYP  RCUT    TYP  RCUT                                 
     2     -6.8782861     23  2.500                                             
     2     -8.2388687     23  2.500                                             
     0     -5.7601759     23  2.500                                             
     0     -0.8493231     23  2.500                                             
     1     -2.7211652     23  2.500                                             
     1     27.2116520     23  2.500                                             
     3     -1.3605826     23  2.500                                             
  local pseudopotential read in
  partial core-charges read in
  partial kinetic energy density read in
  atomic valenz-charges read in
  non local Contribution for L=           2  read in
    real space projection operators read in
  non local Contribution for L=           2  read in
    real space projection operators read in
  non local Contribution for L=           0  read in
    real space projection operators read in
  non local Contribution for L=           0  read in
    real space projection operators read in
  non local Contribution for L=           1  read in
    real space projection operators read in
  non local Contribution for L=           1  read in
    real space projection operators read in
    PAW grid and wavefunctions read in
 
   number of l-projection  operators is LMAX  =           6
   number of lm-projection operators is LMMAX =          18
 
 POTCAR:    PAW_PBE H 15Jun2001                   
   SHA256 =  030f79b5d3ab3cf0e668861823c8fb652ff669f3e15e46930bd03bfd63a607b6 H/
   COPYR  = (c) Copyright 15Jun2001 Georg Kresse                                
   COPYR  = This file is part of the software VASP. Any use, copying, and all ot
   COPYR  = If you do not have a valid VASP license, you may not use, copy or di
   VRHFIN =H: ultrasoft test                                                    
   LEXCH  = PE                                                                  
   EATOM  =    12.4884 eV,    0.9179 Ry                                         
                                                                                
   TITEL  = PAW_PBE H 15Jun2001                                                 
   LULTRA =        F    use ultrasoft PP ?                                      
   IUNSCR =        0    unscreen: 0-lin 1-nonlin 2-no                           
   RPACOR =    0.000    partial core radius                                     
   POMASS =    1.000; ZVAL   =    1.000    mass and valenz                      
   RCORE  =    1.100    outmost cutoff radius                                   
   RWIGS  =    0.700; RWIGS  =    0.370    wigner-seitz radius (au A)           
   ENMAX  =  250.000; ENMIN  =  200.000 eV                                      
   RCLOC  =    0.701    cutoff for local pot                                    
   LCOR   =        T    correct aug charges                                     
   LPAW   =        T    paw PP                                                  
   EAUG   =  400.000                                                            
   RMAX   =    1.123    core radius for proj-oper                               
   RAUG   =    1.200    factor for augmentation sphere                          
   RDEP   =    1.112    radius for radial grids                                 
   RDEPT  =    0.926    core radius for aug-charge                              
                                                                                
   Atomic configuration                                                         
    2 entries                                                                   
     n  l   j            E        occ.                                          
     1  0  0.50        -6.4927   1.0000                                         
     2  1  0.50        -3.4015   0.0000                                         
   Description                                                                  
     l       E           TYP  RCUT    TYP  RCUT                                 
     0     -6.4927494     23  1.100                                             
     0      6.8029130     23  1.100                                             
     1     -4.0817478     23  1.100                                             
  local pseudopotential read in
  atomic valenz-charges read in
  non local Contribution for L=           0  read in
    real space projection operators read in
  non local Contribution for L=           0  read in
    real space projection operators read in
  non local Contribution for L=           1  read in
    real space projection operators read in
    PAW grid and wavefunctions read in
 
   number of l-projection  operators is LMAX  =           3
   number of lm-projection operators is LMMAX =           5
 

 ----------------------------------------------------------------------------- 
|                                                                             |
|  ADVICE TO THIS USER RUNNING 'VASP/VAMP'   (HEAR YOUR MASTER'S VOICE ...):  |
|                                                                             |
|      You have a (more or less) 'large supercell' and for larger cells       |
|      it might be more efficient to use real space projection opertators     |
|      So try LREAL= Auto  in the INCAR   file.                               |
|      Mind:          For very  accurate calculation you might also keep the  |
|      reciprocal projection scheme          (i.e. LREAL=.FALSE.)             |
|                                                                             |
 ----------------------------------------------------------------------------- 

  PAW_PBE Ir 06Sep2000                  :
 energy of atom  1       EATOM= -560.1833
 kinetic energy error for atom=    0.0056 (will be added to EATOM!!)
  PAW_PBE Pt 04Feb2005                  :
 energy of atom  2       EATOM= -729.1176
 kinetic energy error for atom=    0.0144 (will be added to EATOM!!)
  PAW_PBE Au 04Oct2007                  :
 energy of atom  3       EATOM= -926.0867
 kinetic energy error for atom=    0.0152 (will be added to EATOM!!)
  PAW_PBE H 15Jun2001                   :
 energy of atom  4       EATOM=  -12.4884
 kinetic energy error for atom=    0.0203 (will be added to EATOM!!)
 
 
 POSCAR: Ir Pt Au  H                             
  positions in cartesian coordinates
  No initial velocities read in
 exchange correlation table for  LEXCH =        8
   RHO(1)=    0.500       N(1)  =     2000
   RHO(2)=  100.500       N(2)  =     4000
 


--------------------------------------------------------------------------------------------------------


 ion  position               nearest neighbor table
   1  0.000  0.000  0.390-   3 2.78   3 2.78   4 2.78   4 2.78   2 2.78   2 2.78   5 2.84   7 2.84
                             6 2.84
   2  0.500  0.000  0.390-   4 2.78   3 2.78   4 2.78   3 2.78   1 2.78   1 2.78   8 2.81   6 2.84
                             5 2.84
   3  0.000  0.500  0.390-   1 2.78   1 2.78   2 2.78   2 2.78   4 2.78   4 2.78   8 2.81   7 2.84
                             5 2.84
   4  0.500  0.500  0.390-   2 2.78   1 2.78   2 2.78   1 2.78   3 2.78   3 2.78   8 2.81   7 2.84
                             6 2.84
   5  0.167  0.167  0.465-   7 2.78   6 2.78   8 2.78   8 2.78   7 2.78   6 2.78  11 2.80   9 2.80
                            16 2.80   1 2.84   3 2.84   2 2.84
   6  0.667  0.167  0.465-   7 2.78   5 2.78   8 2.78   8 2.78   7 2.78   5 2.78  10 2.80   9 2.80
                            16 2.80   1 2.84   2 2.84   4 2.84
   7  0.167  0.667  0.465-   5 2.78   6 2.78   8 2.78   8 2.78   6 2.78   5 2.78  10 2.80  11 2.80
                            16 2.80   1 2.84   3 2.84   4 2.84
   8  0.667  0.667  0.464-   6 2.78   7 2.78   5 2.78   5 2.78   6 2.78   7 2.78   4 2.81   3 2.81
                             2 2.81   9 2.84  11 2.84  10 2.84
   9  0.834  0.332  0.540-  10 2.77  11 2.77  16 2.78  16 2.78  11 2.79  10 2.79   5 2.80   6 2.80
                            15 2.81  14 2.81   8 2.84  12 2.91
  10  0.834  0.834  0.540-   9 2.77  11 2.77  16 2.78  16 2.78   9 2.79  11 2.79   6 2.80   7 2.80
                            13 2.81  14 2.81   8 2.84  12 2.91
  11  0.332  0.834  0.540-   9 2.77  10 2.77  16 2.78  16 2.78   9 2.79  10 2.79   5 2.80   7 2.80
                            13 2.81  15 2.81   8 2.84  12 2.91
  12  0.000  0.000  0.619-  17 1.56  14 2.78  13 2.78  15 2.78  15 2.78  13 2.78  14 2.78  10 2.91
                            11 2.91   9 2.91
  13  0.500  0.999  0.615-  14 2.77  15 2.77  12 2.78  12 2.78  14 2.79  15 2.79  11 2.81  10 2.81
                            16 2.82
  14  0.999  0.500  0.615-  13 2.77  15 2.77  12 2.78  12 2.78  13 2.79  15 2.79   9 2.81  10 2.81
                            16 2.82
  15  0.500  0.500  0.615-  13 2.77  14 2.77  12 2.78  12 2.78  13 2.79  14 2.79   9 2.81  11 2.81
                            16 2.82
  16  0.333  0.333  0.540-  10 2.78  10 2.78  11 2.78  11 2.78   9 2.78   9 2.78   6 2.80   7 2.80
                             5 2.80  13 2.82  14 2.82  15 2.82
  17  0.000  0.000  0.670-  12 1.56
 
  LATTYP: Found a hexagonal cell.
 ALAT       =     5.5578593001
 C/A-ratio  =     5.5429542221
  
  Lattice vectors:
  
 A1 = (   2.7789296501,  -4.8132473446,   0.0000000000)
 A2 = (  -5.5578593001,   0.0000000000,   0.0000000000)
 A3 = (   0.0000000000,   0.0000000000, -30.8069596737)


Analysis of symmetry for initial positions (statically):
=====================================================================
 Subroutine PRICEL returns:
 Original cell was already a primitive cell.
 

 Routine SETGRP: Setting up the symmetry group for a 
 hexagonal supercell.


 Subroutine GETGRP returns: Found  6 space group operations
 (whereof  6 operations were pure point group operations)
 out of a pool of 24 trial point group operations.


The static configuration has the point symmetry C_3v.


Analysis of symmetry for dynamics (positions and initial velocities):
=====================================================================
 Subroutine PRICEL returns:
 Original cell was already a primitive cell.
 

 Routine SETGRP: Setting up the symmetry group for a 
 hexagonal supercell.


 Subroutine GETGRP returns: Found  6 space group operations
 (whereof  6 operations were pure point group operations)
 out of a pool of 24 trial point group operations.


The dynamic configuration has the point symmetry C_3v.


Analysis of constrained symmetry for selective dynamics:
=====================================================================
 Subroutine PRICEL returns:
 Original cell was already a primitive cell.
 

 Routine SETGRP: Setting up the symmetry group for a 
 hexagonal supercell.


 Subroutine GETGRP returns: Found  6 space group operations
 (whereof  6 operations were pure point group operations)
 out of a pool of 24 trial point group operations.


The constrained configuration has the point symmetry C_3v.


 Subroutine INISYM returns: Found  6 space group operations
 (whereof  6 operations are pure point group operations),
 and found     1 'primitive' translations

 
 
 KPOINTS: KPOINTS created by Atomic Simulation Env

Automatic generation of k-mesh.
Space group operators:
 irot       det(A)        alpha          n_x          n_y          n_z        tau_x        tau_y        tau_z
    1     1.000000     0.000001     1.000000     0.000000     0.000000     0.000000     0.000000     0.000000
    2     1.000000   120.000000     0.000000     0.000000     1.000000     0.000000     0.000000     0.000000
    3     1.000000   120.000000     0.000000     0.000000    -1.000000     0.000000     0.000000     0.000000
    4    -1.000000   180.000000     0.500000    -0.866025     0.000000     0.000000     0.000000     0.000000
    5    -1.000000   180.000000     1.000000     0.000000     0.000000     0.000000     0.000000     0.000000
    6    -1.000000   180.000000    -0.500000    -0.866025     0.000000     0.000000     0.000000     0.000000
 
 Subroutine IBZKPT returns following result:
 ===========================================
 
 Found     20 irreducible k-points:
 
 Following reciprocal coordinates:
            Coordinates               Weight
  0.062500  0.062500  0.000000     48.000000
  0.187500  0.062500  0.000000     96.000000
  0.312500  0.062500  0.000000     96.000000
  0.437500  0.062500  0.000000     96.000000
 -0.437500  0.062500  0.000000     96.000000
 -0.312500  0.062500  0.000000     96.000000
 -0.187500  0.062500  0.000000     96.000000
 -0.062500  0.062500  0.000000     48.000000
  0.187500  0.187500  0.000000     48.000000
  0.312500  0.187500  0.000000     96.000000
  0.437500  0.187500  0.000000     96.000000
 -0.437500  0.187500  0.000000     96.000000
 -0.312500  0.187500  0.000000     96.000000
 -0.187500  0.187500  0.000000     48.000000
  0.312500  0.312500  0.000000     48.000000
  0.437500  0.312500  0.000000     96.000000
 -0.437500  0.312500  0.000000     96.000000
 -0.312500  0.312500  0.000000     48.000000
  0.437500  0.437500  0.000000     48.000000
 -0.437500  0.437500  0.000000     48.000000
 
 Following cartesian coordinates:
            Coordinates               Weight
  0.011245  0.006492  0.000000     48.000000
  0.033736 -0.006492  0.000000     96.000000
  0.056227 -0.019477  0.000000     96.000000
  0.078717 -0.032462  0.000000     96.000000
 -0.078717  0.058432  0.000000     96.000000
 -0.056227  0.045447  0.000000     96.000000
 -0.033736  0.032462  0.000000     96.000000
 -0.011245  0.019477  0.000000     48.000000
  0.033736  0.019477  0.000000     48.000000
  0.056227  0.006492  0.000000     96.000000
  0.078717 -0.006492  0.000000     96.000000
 -0.078717  0.084402  0.000000     96.000000
 -0.056227  0.071417  0.000000     96.000000
 -0.033736  0.058432  0.000000     48.000000
  0.056227  0.032462  0.000000     48.000000
  0.078717  0.019477  0.000000     96.000000
 -0.078717  0.110372  0.000000     96.000000
 -0.056227  0.097387  0.000000     48.000000
  0.078717  0.045447  0.000000     48.000000
 -0.078717  0.136342  0.000000     48.000000
 


--------------------------------------------------------------------------------------------------------




 Dimension of arrays:
   k-points           NKPTS =     20   k-points in BZ     NKDIM =     20   number of bands    NBANDS=     96
   number of dos      NEDOS =    301   number of ions     NIONS =     17
   non local maximal  LDIM  =      6   non local SUM 2l+1 LMDIM =     18
   total plane-waves  NPLWV = 112896
   max r-space proj   IRMAX =      1   max aug-charges    IRDMAX=  10104
   dimension x,y,z NGX =    28 NGY =   28 NGZ =  144
   dimension x,y,z NGXF=    56 NGYF=   56 NGZF=  288
   support grid    NGXF=    56 NGYF=   56 NGZF=  288
   ions per type =               1  14   1   1
   NGX,Y,Z   is equivalent  to a cutoff of   8.38,  8.38,  7.77 a.u.
   NGXF,Y,Z  is equivalent  to a cutoff of  16.75, 16.75, 15.54 a.u.

 SYSTEM =  unknown system                          
 POSCAR =  Ir Pt Au  H                             

 Startparameter for this run:
   NWRITE =      2    write-flag & timer
   PREC   = normal    normal or accurate (medium, high low for compatibility)
   ISTART =      0    job   : 0-new  1-cont  2-samecut
   ICHARG =      2    charge: 1-file 2-atom 10-const
   ISPIN  =      1    spin polarized calculation?
   LNONCOLLINEAR =      F non collinear calculations
   LSORBIT =      F    spin-orbit coupling
   INIWAV =      1    electr: 0-lowe 1-rand  2-diag
   LASPH  =      F    aspherical Exc in radial PAW
   METAGGA=      F    non-selfconsistent MetaGGA calc.

 Electronic Relaxation 1
   ENCUT  =  350.0 eV  25.72 Ry    5.07 a.u.   8.48  8.48 46.99*2*pi/ulx,y,z
   ENINI  =  350.0     initial cutoff
   ENAUG  =  400.0 eV  augmentation charge cutoff
   NELM   =     60;   NELMIN=  2; NELMDL= -5     # of ELM steps 
   EDIFF  = 0.1E-04   stopping-criterion for ELM
   LREAL  =      F    real-space projection
   NLSPLINE    = F    spline interpolate recip. space projectors
   LCOMPAT=      F    compatible to vasp.4.4
   GGA_COMPAT  = T    GGA compatible to vasp.4.4-vasp.4.6
   LMAXPAW     = -100 max onsite density
   LMAXMIX     =    2 max onsite mixed and CHGCAR
   VOSKOWN=      0    Vosko Wilk Nusair interpolation
   ROPT   =    0.00000   0.00000   0.00000   0.00000
 Ionic relaxation
   EDIFFG = -.5E-01   stopping-criterion for IOM
   NSW    =      0    number of steps for IOM
   NBLOCK =      1;   KBLOCK =      1    inner block; outer block 
   IBRION =     -1    ionic relax: 0-MD 1-quasi-New 2-CG
   NFREE  =      1    steps in history (QN), initial steepest desc. (CG)
   ISIF   =      2    stress and relaxation
   IWAVPR =     10    prediction:  0-non 1-charg 2-wave 3-comb
   ISYM   =      2    0-nonsym 1-usesym 2-fastsym
   LCORR  =      T    Harris-Foulkes like correction to forces

   POTIM  = 0.5000    time-step for ionic-motion
   TEIN   =    0.0    initial temperature
   TEBEG  =    0.0;   TEEND  =   0.0 temperature during run
   SMASS  =  -3.00    Nose mass-parameter (am)
   estimated Nose-frequenzy (Omega)   =  0.10E-29 period in steps =****** mass=  -0.706E-27a.u.
   SCALEE = 1.0000    scale energy and forces
   NPACO  =    256;   APACO  = 16.0  distance and # of slots for P.C.
   PSTRESS=    0.0 pullay stress

  Mass of Ions in am
   POMASS = 192.22195.08196.97  1.00
  Ionic Valenz
   ZVAL   =   9.00 10.00 11.00  1.00
  Atomic Wigner-Seitz radii
   RWIGS  =  -1.00 -1.00 -1.00 -1.00
  virtual crystal weights 
   VCA    =   1.00  1.00  1.00  1.00
   NELECT =     161.0000    total number of electrons
   NUPDOWN=      -1.0000    fix difference up-down

 DOS related values:
   EMIN   =  10.00;   EMAX   =-10.00  energy-range for DOS
   EFERMI =   0.00
   ISMEAR =     1;   SIGMA  =   0.20  broadening in eV -4-tet -1-fermi 0-gaus

 Electronic relaxation 2 (details)
   IALGO  =     38    algorithm
   LDIAG  =      T    sub-space diagonalisation (order eigenvalues)
   LSUBROT=      F    optimize rotation matrix (better conditioning)
   TURBO    =      0    0=normal 1=particle mesh
   IRESTART =      0    0=no restart 2=restart with 2 vectors
   NREBOOT  =      0    no. of reboots
   NMIN     =      0    reboot dimension
   EREF     =   0.00    reference energy to select bands
   IMIX   =      4    mixing-type and parameters
     AMIX     =   0.40;   BMIX     =  1.00
     AMIX_MAG =   1.60;   BMIX_MAG =  1.00
     AMIN     =   0.10
     WC   =   100.;   INIMIX=   1;  MIXPRE=   1;  MAXMIX= -45

 Intra band minimization:
   WEIMIN = 0.0000     energy-eigenvalue tresh-hold
   EBREAK =  0.26E-07  absolut break condition
   DEPER  =   0.30     relativ break condition  

   TIME   =   0.40     timestep for ELM

  volume/ion in A,a.u.               =      48.48       327.15
  Fermi-wavevector in a.u.,A,eV,Ry     =   0.949916  1.795081 12.277090  0.902341
  Thomas-Fermi vector in A             =   2.078244
 
 Write flags
   LWAVE        =      F    write WAVECAR
   LDOWNSAMPLE  =      F    k-point downsampling of WAVECAR
   LCHARG       =      F    write CHGCAR
   LVTOT        =      F    write LOCPOT, total local potential
   LVHAR        =      F    write LOCPOT, Hartree potential only
   LELF         =      F    write electronic localiz. function (ELF)
   LORBIT       =      0    0 simple, 1 ext, 2 COOP (PROOUT), +10 PAW based schemes


 Dipole corrections
   LMONO  =      F    monopole corrections only (constant potential shift)
   LDIPOL =      F    correct potential (dipole corrections)
   IDIPOL =      3    1-x, 2-y, 3-z, 4-all directions 
   EPSILON=  1.0000000 bulk dielectric constant

 Exchange correlation treatment:
   GGA     =    PE    GGA type
   LEXCH   =     8    internal setting for exchange type
   VOSKOWN=      0    Vosko Wilk Nusair interpolation
   LHFCALC =     F    Hartree Fock is set to
   LHFONE  =     F    Hartree Fock one center treatment
   AEXX    =    0.0000 exact exchange contribution

 Linear response parameters
   LEPSILON=     F    determine dielectric tensor
   LRPA    =     F    only Hartree local field effects (RPA)
   LNABLA  =     F    use nabla operator in PAW spheres
   LVEL    =     F    velocity operator in full k-point grid
   LINTERFAST=   F  fast interpolation
   KINTER  =     0    interpolate to denser k-point grid
   CSHIFT  =0.1000    complex shift for real part using Kramers Kronig
   OMEGAMAX=  -1.0    maximum frequency
   DEG_THRESHOLD= 0.2000000E-02 threshold for treating states as degnerate
   RTIME   =   -0.100 relaxation time in fs
  (WPLASMAI=    0.000 imaginary part of plasma frequency in eV, 0.658/RTIME)
   DFIELD  = 0.0000000 0.0000000 0.0000000 field for delta impulse in time
 
 Orbital magnetization related:
   ORBITALMAG=     F  switch on orbital magnetization
   LCHIMAG   =     F  perturbation theory with respect to B field
   DQ        =  0.001000  dq finite difference perturbation B field
   LLRAUG    =     F  two centre corrections for induced B field



--------------------------------------------------------------------------------------------------------


 Static calculation
 charge density and potential will be updated during run
 non-spin polarized calculation
 Variant of blocked Davidson
 Davidson routine will perform the subspace rotation
 perform sub-space diagonalisation
    after iterative eigenvector-optimisation
 modified Broyden-mixing scheme, WC =      100.0
 initial mixing is a Kerker type mixing with AMIX =  0.4000 and BMIX =      1.0000
 Hartree-type preconditioning will be used
 using additional bands           15
 reciprocal scheme for non local part
 use partial core corrections
 calculate Harris-corrections to forces 
   (improved forces if not selfconsistent)
 use gradient corrections 
 use of overlap-Matrix (Vanderbilt PP)
 Methfessel and Paxton  Order N= 1 SIGMA  =   0.20


--------------------------------------------------------------------------------------------------------


  energy-cutoff  :      350.00
  volume of cell :      824.13
      direct lattice vectors                 reciprocal lattice vectors
     5.557859300  0.000000000  0.000000000     0.179925390 -0.103879972  0.000000000
     2.778929650  4.813247345  0.000000000     0.000000000  0.207759944  0.000000000
     0.000000000  0.000000000 30.806959674     0.000000000  0.000000000  0.032460198

  length of vectors
     5.557859300  5.557859300 30.806959674     0.207759944  0.207759944  0.032460198


 
 k-points in units of 2pi/SCALE and weight: KPOINTS created by Atomic Simulation Env
   0.01124534  0.00649250  0.00000000       0.031
   0.03373601 -0.00649250  0.00000000       0.062
   0.05622668 -0.01947749  0.00000000       0.062
   0.07871736 -0.03246249  0.00000000       0.062
  -0.07871736  0.05843248  0.00000000       0.062
  -0.05622668  0.04544749  0.00000000       0.062
  -0.03373601  0.03246249  0.00000000       0.062
  -0.01124534  0.01947749  0.00000000       0.031
   0.03373601  0.01947749  0.00000000       0.031
   0.05622668  0.00649250  0.00000000       0.062
   0.07871736 -0.00649250  0.00000000       0.062
  -0.07871736  0.08440248  0.00000000       0.062
  -0.05622668  0.07141748  0.00000000       0.062
  -0.03373601  0.05843248  0.00000000       0.031
   0.05622668  0.03246249  0.00000000       0.031
   0.07871736  0.01947749  0.00000000       0.062
  -0.07871736  0.11037247  0.00000000       0.062
  -0.05622668  0.09738747  0.00000000       0.031
   0.07871736  0.04544749  0.00000000       0.031
  -0.07871736  0.13634246  0.00000000       0.031
 
 k-points in reciprocal lattice and weights: KPOINTS created by Atomic Simulation Env
   0.06250000  0.06250000  0.00000000       0.031
   0.18750000  0.06250000  0.00000000       0.062
   0.31250000  0.06250000  0.00000000       0.062
   0.43750000  0.06250000  0.00000000       0.062
  -0.43750000  0.06250000  0.00000000       0.062
  -0.31250000  0.06250000  0.00000000       0.062
  -0.18750000  0.06250000  0.00000000       0.062
  -0.06250000  0.06250000  0.00000000       0.031
   0.18750000  0.18750000  0.00000000       0.031
   0.31250000  0.18750000  0.00000000       0.062
   0.43750000  0.18750000  0.00000000       0.062
  -0.43750000  0.18750000  0.00000000       0.062
  -0.31250000  0.18750000  0.00000000       0.062
  -0.18750000  0.18750000  0.00000000       0.031
   0.31250000  0.31250000  0.00000000       0.031
   0.43750000  0.31250000  0.00000000       0.062
  -0.43750000  0.31250000  0.00000000       0.062
  -0.31250000  0.31250000  0.00000000       0.031
   0.43750000  0.43750000  0.00000000       0.031
  -0.43750000  0.43750000  0.00000000       0.031
 
 position of ions in fractional coordinates (direct lattice) 
   0.00000000  0.00000000  0.38952237
   0.50000000  0.00000000  0.38952237
   0.00000000  0.50000000  0.38952237
   0.50000000  0.50000000  0.38952237
   0.16652883  0.16652883  0.46542487
   0.66694234  0.16652883  0.46542487
   0.16652883  0.66694234  0.46542487
   0.66666667  0.66666667  0.46426737
   0.83396869  0.33206261  0.54005199
   0.83396869  0.83396869  0.54005199
   0.33206261  0.83396869  0.54005199
   0.00000000  0.00000000  0.61904352
   0.50048728  0.99902544  0.61498914
   0.99902544  0.50048728  0.61498914
   0.50048728  0.50048728  0.61498914
   0.33333333  0.33333333  0.53994492
   0.00000000  0.00000000  0.66953436
 
 position of ions in cartesian coordinates  (Angst):
   0.00000000  0.00000000 12.00000000
   2.77892965  0.00000000 12.00000000
   1.38946483  2.40662367 12.00000000
   4.16839448  2.40662367 12.00000000
   1.38831573  0.80154446 14.33832516
   4.16954357  0.80154446 14.33832516
   2.77892965  3.21015843 14.33832516
   5.55785930  3.20883156 14.30266626
   5.55785930  1.59829948 16.63736001
   6.95262100  4.01409760 16.63736001
   4.16309760  4.01409760 16.63736001
   0.00000000  0.00000000 19.07084875
   5.55785930  4.80855657 18.94594552
   6.94326179  2.40896906 18.94594552
   4.17245681  2.40896906 18.94594552
   2.77892965  1.60441578 16.63406129
   0.00000000  0.00000000 20.62631794
 


--------------------------------------------------------------------------------------------------------


 k-point  1 :   0.0625 0.0625 0.0000  plane waves:   12325
 k-point  2 :   0.1875 0.0625 0.0000  plane waves:   12294
 k-point  3 :   0.3125 0.0625 0.0000  plane waves:   12263
 k-point  4 :   0.4375 0.0625 0.0000  plane waves:   12221
 k-point  5 :  -0.4375 0.0625 0.0000  plane waves:   12211
 k-point  6 :  -0.3125 0.0625 0.0000  plane waves:   12242
 k-point  7 :  -0.1875 0.0625 0.0000  plane waves:   12280
 k-point  8 :  -0.0625 0.0625 0.0000  plane waves:   12329
 k-point  9 :   0.1875 0.1875 0.0000  plane waves:   12277
 k-point 10 :   0.3125 0.1875 0.0000  plane waves:   12288
 k-point 11 :   0.4375 0.1875 0.0000  plane waves:   12234
 k-point 12 :  -0.4375 0.1875 0.0000  plane waves:   12216
 k-point 13 :  -0.3125 0.1875 0.0000  plane waves:   12215
 k-point 14 :  -0.1875 0.1875 0.0000  plane waves:   12289
 k-point 15 :   0.3125 0.3125 0.0000  plane waves:   12275
 k-point 16 :   0.4375 0.3125 0.0000  plane waves:   12239
 k-point 17 :  -0.4375 0.3125 0.0000  plane waves:   12235
 k-point 18 :  -0.3125 0.3125 0.0000  plane waves:   12232
 k-point 19 :   0.4375 0.4375 0.0000  plane waves:   12200
 k-point 20 :  -0.4375 0.4375 0.0000  plane waves:   12214

 maximum and minimum number of plane-waves per node :     12329    12200

 maximum number of plane-waves:     12329
 maximum index in each direction: 
   IXMAX=    8   IYMAX=    8   IZMAX=   46
   IXMIN=   -8   IYMIN=   -8   IZMIN=  -46


 serial   3D FFT for wavefunctions
 parallel 3D FFT for charge:
    minimum data exchange during FFTs selected (reduces bandwidth)


 total amount of memory used by VASP MPI-rank0   201964. kBytes
=======================================================================

   base      :      30000. kBytes
   nonl-proj :     145466. kBytes
   fftplans  :       2015. kBytes
   grid      :       8030. kBytes
   one-center:        264. kBytes
   wavefun   :      16189. kBytes
 
     INWAV:  cpu time    0.0001: real time    0.0001
 Broyden mixing: mesh for mixing (old mesh)
   NGX = 17   NGY = 17   NGZ = 93
  (NGX  = 56   NGY  = 56   NGZ  =288)
  gives a total of  26877 points

 initial charge density was supplied:
 charge density of overlapping atoms calculated
 number of electron     161.0000000 magnetization 
 keeping initial charge density in first step


--------------------------------------------------------------------------------------------------------


 Maximum index for augmentation-charges          824 (set IRDMAX)


--------------------------------------------------------------------------------------------------------


 First call to EWALD:  gamma=   0.189
 Maximum number of real-space cells 5x 5x 1
 Maximum number of reciprocal cells 2x 2x 8

    FEWALD:  cpu time    0.0014: real time    0.0014


--------------------------------------- Iteration      1(   1)  ---------------------------------------


    POTLOK:  cpu time    0.0198: real time    0.0259
    SETDIJ:  cpu time    0.0023: real time    0.0023
     EDDAV:  cpu time    3.5114: real time    3.5122
       DOS:  cpu time    0.0010: real time    0.0010
    --------------------------------------------
      LOOP:  cpu time    3.5346: real time    3.5415

 eigenvalue-minimisations  :  3840
 total energy-change (2. order) : 0.9821361E+03  (-0.5569520E+04)
 number of electron     161.0000000 magnetization 
 augmentation part      161.0000000 magnetization 

 Free energy of the ion-electron system (eV)
  ---------------------------------------------------
  alpha Z        PSCENC =       305.89839443
  Ewald energy   TEWEN  =     99027.89845496
  -Hartree energ DENC   =   -111115.65487097
  -exchange      EXHF   =         0.00000000
  -V(xc)+E(xc)   XCENC  =        48.74479440
  PAW double counting   =     11173.35063782   -10713.98924482
  entropy T*S    EENTRO =         0.00289147
  eigenvalues    EBANDS =       549.72265783
  atomic energy  EATOM  =     11706.16234457
  Solvation  Ediel_sol  =         0.00000000
  ---------------------------------------------------
  free energy    TOTEN  =       982.13605968 eV

  energy without entropy =      982.13316821  energy(sigma->0) =      982.13509585


--------------------------------------------------------------------------------------------------------




--------------------------------------- Iteration      1(   2)  ---------------------------------------


     EDDAV:  cpu time    5.0949: real time    5.0970
       DOS:  cpu time    0.0008: real time    0.0008
    --------------------------------------------
      LOOP:  cpu time    5.0957: real time    5.0977

 eigenvalue-minimisations  :  5640
 total energy-change (2. order) :-0.1025565E+04  (-0.9949678E+03)
 number of electron     161.0000000 magnetization 
 augmentation part      161.0000000 magnetization 

 Free energy of the ion-electron system (eV)
  ---------------------------------------------------
  alpha Z        PSCENC =       305.89839443
  Ewald energy   TEWEN  =     99027.89845496
  -Hartree energ DENC   =   -111115.65487097
  -exchange      EXHF   =         0.00000000
  -V(xc)+E(xc)   XCENC  =        48.74479440
  PAW double counting   =     11173.35063782   -10713.98924482
  entropy T*S    EENTRO =        -0.00490118
  eigenvalues    EBANDS =      -475.83492332
  atomic energy  EATOM  =     11706.16234457
  Solvation  Ediel_sol  =         0.00000000
  ---------------------------------------------------
  free energy    TOTEN  =       -43.42931412 eV

  energy without entropy =      -43.42441295  energy(sigma->0) =      -43.42768040


--------------------------------------------------------------------------------------------------------




--------------------------------------- Iteration      1(   3)  ---------------------------------------


     EDDAV:  cpu time    4.3522: real time    4.3543
       DOS:  cpu time    0.0011: real time    0.0011
    --------------------------------------------
      LOOP:  cpu time    4.3532: real time    4.3554

 eigenvalue-minimisations  :  4800
 total energy-change (2. order) :-0.5751501E+02  (-0.5591122E+02)
 number of electron     161.0000000 magnetization 
 augmentation part      161.0000000 magnetization 

 Free energy of the ion-electron system (eV)
  ---------------------------------------------------
  alpha Z        PSCENC =       305.89839443
  Ewald energy   TEWEN  =     99027.89845496
  -Hartree energ DENC   =   -111115.65487097
  -exchange      EXHF   =         0.00000000
  -V(xc)+E(xc)   XCENC  =        48.74479440
  PAW double counting   =     11173.35063782   -10713.98924482
  entropy T*S    EENTRO =        -0.02632024
  eigenvalues    EBANDS =      -533.32851375
  atomic energy  EATOM  =     11706.16234457
  Solvation  Ediel_sol  =         0.00000000
  ---------------------------------------------------
  free energy    TOTEN  =      -100.94432361 eV

  energy without entropy =     -100.91800337  energy(sigma->0) =     -100.93555019


--------------------------------------------------------------------------------------------------------




--------------------------------------- Iteration      1(   4)  ---------------------------------------


     EDDAV:  cpu time    4.9395: real time    4.9402
       DOS:  cpu time    0.0010: real time    0.0010
    --------------------------------------------
      LOOP:  cpu time    4.9405: real time    4.9412

 eigenvalue-minimisations  :  5520
 total energy-change (2. order) :-0.1239459E+01  (-0.1234301E+01)
 number of electron     161.0000000 magnetization 
 augmentation part      161.0000000 magnetization 

 Free energy of the ion-electron system (eV)
  ---------------------------------------------------
  alpha Z        PSCENC =       305.89839443
  Ewald energy   TEWEN  =     99027.89845496
  -Hartree energ DENC   =   -111115.65487097
  -exchange      EXHF   =         0.00000000
  -V(xc)+E(xc)   XCENC  =        48.74479440
  PAW double counting   =     11173.35063782   -10713.98924482
  entropy T*S    EENTRO =        -0.02836330
  eigenvalues    EBANDS =      -534.56592999
  atomic energy  EATOM  =     11706.16234457
  Solvation  Ediel_sol  =         0.00000000
  ---------------------------------------------------
  free energy    TOTEN  =      -102.18378291 eV

  energy without entropy =     -102.15541961  energy(sigma->0) =     -102.17432848


--------------------------------------------------------------------------------------------------------




--------------------------------------- Iteration      1(   5)  ---------------------------------------


     EDDAV:  cpu time    5.1848: real time    5.1870
       DOS:  cpu time    0.0008: real time    0.0008
    CHARGE:  cpu time    0.1314: real time    0.1314
    MIXING:  cpu time    0.0009: real time    0.0009
    --------------------------------------------
      LOOP:  cpu time    5.3179: real time    5.3201

 eigenvalue-minimisations  :  5784
 total energy-change (2. order) :-0.2755200E-01  (-0.2753727E-01)
 number of electron     161.0000039 magnetization 
 augmentation part       46.8951592 magnetization 

 Broyden mixing:
  rms(total) = 0.41865E+01    rms(broyden)= 0.41863E+01
  rms(prec ) = 0.42199E+01
  weight for this iteration     100.00

 Free energy of the ion-electron system (eV)
  ---------------------------------------------------
  alpha Z        PSCENC =       305.89839443
  Ewald energy   TEWEN  =     99027.89845496
  -Hartree energ DENC   =   -111115.65487097
  -exchange      EXHF   =         0.00000000
  -V(xc)+E(xc)   XCENC  =        48.74479440
  PAW double counting   =     11173.35063782   -10713.98924482
  entropy T*S    EENTRO =        -0.02836429
  eigenvalues    EBANDS =      -534.59348100
  atomic energy  EATOM  =     11706.16234457
  Solvation  Ediel_sol  =         0.00000000
  ---------------------------------------------------
  free energy    TOTEN  =      -102.21133491 eV

  energy without entropy =     -102.18297062  energy(sigma->0) =     -102.20188015


--------------------------------------------------------------------------------------------------------




--------------------------------------- Iteration      1(   6)  ---------------------------------------


    POTLOK:  cpu time    0.0172: real time    0.0172
    SETDIJ:  cpu time    0.0021: real time    0.0021
     EDDAV:  cpu time    4.3438: real time    4.3443
       DOS:  cpu time    0.0008: real time    0.0008
    CHARGE:  cpu time    0.1327: real time    0.1327
    MIXING:  cpu time    0.0008: real time    0.0008
    --------------------------------------------
      LOOP:  cpu time    4.4973: real time    4.4978

 eigenvalue-minimisations  :  4824
 total energy-change (2. order) : 0.4094546E+01  (-0.3441945E+01)
 number of electron     161.0000034 magnetization 
 augmentation part       49.5591554 magnetization 

 Broyden mixing:
  rms(total) = 0.31199E+01    rms(broyden)= 0.31198E+01
  rms(prec ) = 0.32528E+01
  weight for this iteration     100.00

 eigenvalues of (default mixing * dielectric matrix)
  average eigenvalue GAMMA=   1.2116
  1.2116

 Free energy of the ion-electron system (eV)
  ---------------------------------------------------
  alpha Z        PSCENC =       305.89839443
  Ewald energy   TEWEN  =     99027.89845496
  -Hartree energ DENC   =   -110902.92718958
  -exchange      EXHF   =         0.00000000
  -V(xc)+E(xc)   XCENC  =        44.64946985
  PAW double counting   =     12331.21396679   -11895.41047203
  entropy T*S    EENTRO =        -0.03869990
  eigenvalues    EBANDS =      -715.56305777
  atomic energy  EATOM  =     11706.16234457
  Solvation  Ediel_sol  =         0.00000000
  ---------------------------------------------------
  free energy    TOTEN  =       -98.11678866 eV

  energy without entropy =      -98.07808877  energy(sigma->0) =      -98.10388870


--------------------------------------------------------------------------------------------------------




--------------------------------------- Iteration      1(   7)  ---------------------------------------


    POTLOK:  cpu time    0.0172: real time    0.0185
    SETDIJ:  cpu time    0.0021: real time    0.0021
     EDDAV:  cpu time    4.8736: real time    4.8743
       DOS:  cpu time    0.0008: real time    0.0008
    CHARGE:  cpu time    0.1332: real time    0.1332
    MIXING:  cpu time    0.0006: real time    0.0006
    --------------------------------------------
      LOOP:  cpu time    5.0275: real time    5.0295

 eigenvalue-minimisations  :  5496
 total energy-change (2. order) :-0.3256248E+02  (-0.3516312E+02)
 number of electron     161.0000039 magnetization 
 augmentation part       48.3392051 magnetization 

 Broyden mixing:
  rms(total) = 0.50249E+01    rms(broyden)= 0.50248E+01
  rms(prec ) = 0.59227E+01
  weight for this iteration     100.00

 eigenvalues of (default mixing * dielectric matrix)
  average eigenvalue GAMMA=   1.0779
  1.9347  0.2211

 Free energy of the ion-electron system (eV)
  ---------------------------------------------------
  alpha Z        PSCENC =       305.89839443
  Ewald energy   TEWEN  =     99027.89845496
  -Hartree energ DENC   =   -111053.14808432
  -exchange      EXHF   =         0.00000000
  -V(xc)+E(xc)   XCENC  =        43.65348508
  PAW double counting   =     13159.81966590   -12733.51228915
  entropy T*S    EENTRO =        -0.00035900
  eigenvalues    EBANDS =      -587.45088155
  atomic energy  EATOM  =     11706.16234457
  Solvation  Ediel_sol  =         0.00000000
  ---------------------------------------------------
  free energy    TOTEN  =      -130.67926908 eV

  energy without entropy =     -130.67891008  energy(sigma->0) =     -130.67914941


--------------------------------------------------------------------------------------------------------




--------------------------------------- Iteration      1(   8)  ---------------------------------------


    POTLOK:  cpu time    0.0164: real time    0.0164
    SETDIJ:  cpu time    0.0021: real time    0.0021
     EDDAV:  cpu time    4.9336: real time    4.9341
       DOS:  cpu time    0.0010: real time    0.0010
    CHARGE:  cpu time    0.1319: real time    0.1319
    MIXING:  cpu time    0.0006: real time    0.0006
    --------------------------------------------
      LOOP:  cpu time    5.0856: real time    5.0862

 eigenvalue-minimisations  :  5544
 total energy-change (2. order) : 0.1618025E+02  (-0.1621425E+02)
 number of electron     161.0000063 magnetization 
 augmentation part       49.9918930 magnetization 

 Broyden mixing:
  rms(total) = 0.37698E+01    rms(broyden)= 0.37697E+01
  rms(prec ) = 0.44226E+01
  weight for this iteration     100.00

 eigenvalues of (default mixing * dielectric matrix)
  average eigenvalue GAMMA=   0.8904
  2.1708  0.2503  0.2503

 Free energy of the ion-electron system (eV)
  ---------------------------------------------------
  alpha Z        PSCENC =       305.89839443
  Ewald energy   TEWEN  =     99027.89845496
  -Hartree energ DENC   =   -110985.49046251
  -exchange      EXHF   =         0.00000000
  -V(xc)+E(xc)   XCENC  =        42.76653664
  PAW double counting   =     13952.36762414   -13536.38513755
  entropy T*S    EENTRO =        -0.01621802
  eigenvalues    EBANDS =      -627.70055547
  atomic energy  EATOM  =     11706.16234457
  Solvation  Ediel_sol  =         0.00000000
  ---------------------------------------------------
  free energy    TOTEN  =      -114.49901882 eV

  energy without entropy =     -114.48280079  energy(sigma->0) =     -114.49361281


--------------------------------------------------------------------------------------------------------




--------------------------------------- Iteration      1(   9)  ---------------------------------------


    POTLOK:  cpu time    0.0167: real time    0.0167
    SETDIJ:  cpu time    0.0021: real time    0.0021
     EDDAV:  cpu time    4.9604: real time    4.9610
       DOS:  cpu time    0.0008: real time    0.0008
    CHARGE:  cpu time    0.1321: real time    0.1321
    MIXING:  cpu time    0.0007: real time    0.0007
    --------------------------------------------
      LOOP:  cpu time    5.1128: real time    5.1134

 eigenvalue-minimisations  :  5616
 total energy-change (2. order) : 0.8562150E+01  (-0.1576954E+02)
 number of electron     161.0000036 magnetization 
 augmentation part       50.2828098 magnetization 

 Broyden mixing:
  rms(total) = 0.25259E+01    rms(broyden)= 0.25258E+01
  rms(prec ) = 0.33356E+01
  weight for this iteration     100.00

 eigenvalues of (default mixing * dielectric matrix)
  average eigenvalue GAMMA=   0.8174
  2.2164  0.5761  0.3245  0.1528

 Free energy of the ion-electron system (eV)
  ---------------------------------------------------
  alpha Z        PSCENC =       305.89839443
  Ewald energy   TEWEN  =     99027.89845496
  -Hartree energ DENC   =   -110887.42258618
  -exchange      EXHF   =         0.00000000
  -V(xc)+E(xc)   XCENC  =        42.57605523
  PAW double counting   =     14266.56283512   -13853.88967232
  entropy T*S    EENTRO =        -0.01441601
  eigenvalues    EBANDS =      -713.70827884
  atomic energy  EATOM  =     11706.16234457
  Solvation  Ediel_sol  =         0.00000000
  ---------------------------------------------------
  free energy    TOTEN  =      -105.93686903 eV

  energy without entropy =     -105.92245302  energy(sigma->0) =     -105.93206369


--------------------------------------------------------------------------------------------------------




--------------------------------------- Iteration      1(  10)  ---------------------------------------


    POTLOK:  cpu time    0.0172: real time    0.0186
    SETDIJ:  cpu time    0.0021: real time    0.0021
     EDDAV:  cpu time    4.5837: real time    4.5843
       DOS:  cpu time    0.0010: real time    0.0010
    CHARGE:  cpu time    0.1309: real time    0.1309
    MIXING:  cpu time    0.0007: real time    0.0007
    --------------------------------------------
      LOOP:  cpu time    4.7356: real time    4.7376

 eigenvalue-minimisations  :  5136
 total energy-change (2. order) : 0.4005718E+01  (-0.1162531E+02)
 number of electron     161.0000030 magnetization 
 augmentation part       50.3682912 magnetization 

 Broyden mixing:
  rms(total) = 0.24070E+01    rms(broyden)= 0.24069E+01
  rms(prec ) = 0.26573E+01
  weight for this iteration     100.00

 eigenvalues of (default mixing * dielectric matrix)
  average eigenvalue GAMMA=   0.7054
  2.2397  0.5780  0.3438  0.2289  0.1365

 Free energy of the ion-electron system (eV)
  ---------------------------------------------------
  alpha Z        PSCENC =       305.89839443
  Ewald energy   TEWEN  =     99027.89845496
  -Hartree energ DENC   =   -110929.76186246
  -exchange      EXHF   =         0.00000000
  -V(xc)+E(xc)   XCENC  =        42.98429871
  PAW double counting   =     14433.08456495   -14019.92013261
  entropy T*S    EENTRO =        -0.03624335
  eigenvalues    EBANDS =      -668.24097004
  atomic energy  EATOM  =     11706.16234457
  Solvation  Ediel_sol  =         0.00000000
  ---------------------------------------------------
  free energy    TOTEN  =      -101.93115085 eV

  energy without entropy =     -101.89490750  energy(sigma->0) =     -101.91906973


--------------------------------------------------------------------------------------------------------




--------------------------------------- Iteration      1(  11)  ---------------------------------------


    POTLOK:  cpu time    0.0181: real time    0.0207
    SETDIJ:  cpu time    0.0021: real time    0.0021
     EDDAV:  cpu time    5.1187: real time    5.1193
       DOS:  cpu time    0.0010: real time    0.0010
    CHARGE:  cpu time    0.1305: real time    0.1305
    MIXING:  cpu time    0.0008: real time    0.0008
    --------------------------------------------
      LOOP:  cpu time    5.2711: real time    5.2743

 eigenvalue-minimisations  :  5856
 total energy-change (2. order) : 0.5885658E+01  (-0.1541469E+01)
 number of electron     161.0000036 magnetization 
 augmentation part       50.2827174 magnetization 

 Broyden mixing:
  rms(total) = 0.77395E+00    rms(broyden)= 0.77388E+00
  rms(prec ) = 0.82622E+00
  weight for this iteration     100.00

 eigenvalues of (default mixing * dielectric matrix)
  average eigenvalue GAMMA=   0.6768
  1.9350  0.8635  0.4164  0.4164  0.2882  0.1412

 Free energy of the ion-electron system (eV)
  ---------------------------------------------------
  alpha Z        PSCENC =       305.89839443
  Ewald energy   TEWEN  =     99027.89845496
  -Hartree energ DENC   =   -110921.49944140
  -exchange      EXHF   =         0.00000000
  -V(xc)+E(xc)   XCENC  =        43.00129187
  PAW double counting   =     14485.44405208   -14072.40293577
  entropy T*S    EENTRO =        -0.00458903
  eigenvalues    EBANDS =      -670.54306505
  atomic energy  EATOM  =     11706.16234457
  Solvation  Ediel_sol  =         0.00000000
  ---------------------------------------------------
  free energy    TOTEN  =       -96.04549334 eV

  energy without entropy =      -96.04090431  energy(sigma->0) =      -96.04396366


--------------------------------------------------------------------------------------------------------




--------------------------------------- Iteration      1(  12)  ---------------------------------------


    POTLOK:  cpu time    0.0169: real time    0.0169
    SETDIJ:  cpu time    0.0023: real time    0.0023
     EDDAV:  cpu time    5.1114: real time    5.1121
       DOS:  cpu time    0.0008: real time    0.0008
    CHARGE:  cpu time    0.1306: real time    0.1306
    MIXING:  cpu time    0.0008: real time    0.0008
    --------------------------------------------
      LOOP:  cpu time    5.2627: real time    5.2634

 eigenvalue-minimisations  :  5832
 total energy-change (2. order) :-0.2015689E+00  (-0.7915405E+00)
 number of electron     161.0000040 magnetization 
 augmentation part       50.1721821 magnetization 

 Broyden mixing:
  rms(total) = 0.88182E+00    rms(broyden)= 0.88172E+00
  rms(prec ) = 0.97017E+00
  weight for this iteration     100.00

 eigenvalues of (default mixing * dielectric matrix)
  average eigenvalue GAMMA=   0.6299
  1.9733  0.8083  0.5004  0.5004  0.1405  0.2434  0.2434

 Free energy of the ion-electron system (eV)
  ---------------------------------------------------
  alpha Z        PSCENC =       305.89839443
  Ewald energy   TEWEN  =     99027.89845496
  -Hartree energ DENC   =   -110920.80111124
  -exchange      EXHF   =         0.00000000
  -V(xc)+E(xc)   XCENC  =        43.12434634
  PAW double counting   =     14351.02526216   -13936.52596970
  entropy T*S    EENTRO =        -0.01915645
  eigenvalues    EBANDS =      -673.00962736
  atomic energy  EATOM  =     11706.16234457
  Solvation  Ediel_sol  =         0.00000000
  ---------------------------------------------------
  free energy    TOTEN  =       -96.24706229 eV

  energy without entropy =      -96.22790584  energy(sigma->0) =      -96.24067680


--------------------------------------------------------------------------------------------------------




--------------------------------------- Iteration      1(  13)  ---------------------------------------


    POTLOK:  cpu time    0.0173: real time    0.0223
    SETDIJ:  cpu time    0.0021: real time    0.0021
     EDDAV:  cpu time    4.8375: real time    4.8381
       DOS:  cpu time    0.0010: real time    0.0010
    CHARGE:  cpu time    0.1330: real time    0.1330
    MIXING:  cpu time    0.0008: real time    0.0008
    --------------------------------------------
      LOOP:  cpu time    4.9917: real time    4.9974

 eigenvalue-minimisations  :  5472
 total energy-change (2. order) : 0.7017735E+00  (-0.2638855E+00)
 number of electron     161.0000040 magnetization 
 augmentation part       50.1477509 magnetization 

 Broyden mixing:
  rms(total) = 0.34296E+00    rms(broyden)= 0.34292E+00
  rms(prec ) = 0.36004E+00
  weight for this iteration     100.00

 eigenvalues of (default mixing * dielectric matrix)
  average eigenvalue GAMMA=   0.6917
  2.0436  0.8095  0.8095  0.8563  0.1407  0.3396  0.2670  0.2670

 Free energy of the ion-electron system (eV)
  ---------------------------------------------------
  alpha Z        PSCENC =       305.89839443
  Ewald energy   TEWEN  =     99027.89845496
  -Hartree energ DENC   =   -110922.47257366
  -exchange      EXHF   =         0.00000000
  -V(xc)+E(xc)   XCENC  =        43.17040836
  PAW double counting   =     14352.20220643   -13937.84303457
  entropy T*S    EENTRO =        -0.02838948
  eigenvalues    EBANDS =      -670.53309979
  atomic energy  EATOM  =     11706.16234457
  Solvation  Ediel_sol  =         0.00000000
  ---------------------------------------------------
  free energy    TOTEN  =       -95.54528875 eV

  energy without entropy =      -95.51689927  energy(sigma->0) =      -95.53582559


--------------------------------------------------------------------------------------------------------




--------------------------------------- Iteration      1(  14)  ---------------------------------------


    POTLOK:  cpu time    0.0170: real time    0.0170
    SETDIJ:  cpu time    0.0023: real time    0.0023
     EDDAV:  cpu time    4.0879: real time    4.0884
       DOS:  cpu time    0.0010: real time    0.0010
    CHARGE:  cpu time    0.1328: real time    0.1328
    MIXING:  cpu time    0.0009: real time    0.0009
    --------------------------------------------
      LOOP:  cpu time    4.2418: real time    4.2423

 eigenvalue-minimisations  :  4560
 total energy-change (2. order) :-0.2125085E-01  (-0.5001930E-01)
 number of electron     161.0000038 magnetization 
 augmentation part       50.1288030 magnetization 

 Broyden mixing:
  rms(total) = 0.34678E+00    rms(broyden)= 0.34676E+00
  rms(prec ) = 0.39161E+00
  weight for this iteration     100.00

 eigenvalues of (default mixing * dielectric matrix)
  average eigenvalue GAMMA=   0.6927
  2.1133  1.0136  1.0136  0.7719  0.1406  0.3336  0.3336  0.2572  0.2572

 Free energy of the ion-electron system (eV)
  ---------------------------------------------------
  alpha Z        PSCENC =       305.89839443
  Ewald energy   TEWEN  =     99027.89845496
  -Hartree energ DENC   =   -110927.99201208
  -exchange      EXHF   =         0.00000000
  -V(xc)+E(xc)   XCENC  =        43.19903540
  PAW double counting   =     14333.56642113   -13919.40591444
  entropy T*S    EENTRO =        -0.02036351
  eigenvalues    EBANDS =      -664.87290006
  atomic energy  EATOM  =     11706.16234457
  Solvation  Ediel_sol  =         0.00000000
  ---------------------------------------------------
  free energy    TOTEN  =       -95.56653960 eV

  energy without entropy =      -95.54617610  energy(sigma->0) =      -95.55975177


--------------------------------------------------------------------------------------------------------




--------------------------------------- Iteration      1(  15)  ---------------------------------------


    POTLOK:  cpu time    0.0169: real time    0.0169
    SETDIJ:  cpu time    0.0021: real time    0.0021
     EDDAV:  cpu time    4.5200: real time    4.5206
       DOS:  cpu time    0.0010: real time    0.0010
    CHARGE:  cpu time    0.1320: real time    0.1320
    MIXING:  cpu time    0.0010: real time    0.0010
    --------------------------------------------
      LOOP:  cpu time    4.6731: real time    4.6737

 eigenvalue-minimisations  :  5040
 total energy-change (2. order) : 0.6070550E-01  (-0.3070533E-01)
 number of electron     161.0000040 magnetization 
 augmentation part       50.1143526 magnetization 

 Broyden mixing:
  rms(total) = 0.16326E+00    rms(broyden)= 0.16324E+00
  rms(prec ) = 0.16923E+00
  weight for this iteration     100.00

 eigenvalues of (default mixing * dielectric matrix)
  average eigenvalue GAMMA=   0.7710
  1.8270  1.8270  1.3800  0.6649  0.6649  0.1407  0.3409  0.3409  0.2621  0.2621

 Free energy of the ion-electron system (eV)
  ---------------------------------------------------
  alpha Z        PSCENC =       305.89839443
  Ewald energy   TEWEN  =     99027.89845496
  -Hartree energ DENC   =   -110932.42478049
  -exchange      EXHF   =         0.00000000
  -V(xc)+E(xc)   XCENC  =        43.20916291
  PAW double counting   =     14313.13745897   -13899.10133325
  entropy T*S    EENTRO =        -0.02608990
  eigenvalues    EBANDS =      -660.25944630
  atomic energy  EATOM  =     11706.16234457
  Solvation  Ediel_sol  =         0.00000000
  ---------------------------------------------------
  free energy    TOTEN  =       -95.50583410 eV

  energy without entropy =      -95.47974420  energy(sigma->0) =      -95.49713747


--------------------------------------------------------------------------------------------------------




--------------------------------------- Iteration      1(  16)  ---------------------------------------


    POTLOK:  cpu time    0.0176: real time    0.0190
    SETDIJ:  cpu time    0.0021: real time    0.0021
     EDDAV:  cpu time    4.1637: real time    4.1641
       DOS:  cpu time    0.0010: real time    0.0010
    CHARGE:  cpu time    0.1306: real time    0.1306
    MIXING:  cpu time    0.0011: real time    0.0011
    --------------------------------------------
      LOOP:  cpu time    4.3161: real time    4.3180

 eigenvalue-minimisations  :  4632
 total energy-change (2. order) : 0.3475016E-02  (-0.3601404E-02)
 number of electron     161.0000040 magnetization 
 augmentation part       50.0887553 magnetization 

 Broyden mixing:
  rms(total) = 0.11364E+00    rms(broyden)= 0.11364E+00
  rms(prec ) = 0.12624E+00
  weight for this iteration     100.00

 eigenvalues of (default mixing * dielectric matrix)
  average eigenvalue GAMMA=   0.8245
  2.1629  2.1629  1.3188  0.7363  0.7363  0.5946  0.1407  0.3467  0.3467  0.2617
  0.2617

 Free energy of the ion-electron system (eV)
  ---------------------------------------------------
  alpha Z        PSCENC =       305.89839443
  Ewald energy   TEWEN  =     99027.89845496
  -Hartree energ DENC   =   -110940.35088286
  -exchange      EXHF   =         0.00000000
  -V(xc)+E(xc)   XCENC  =        43.26730547
  PAW double counting   =     14246.09868813   -13831.81168360
  entropy T*S    EENTRO =        -0.02517505
  eigenvalues    EBANDS =      -652.63980512
  atomic energy  EATOM  =     11706.16234457
  Solvation  Ediel_sol  =         0.00000000
  ---------------------------------------------------
  free energy    TOTEN  =       -95.50235908 eV

  energy without entropy =      -95.47718403  energy(sigma->0) =      -95.49396740


--------------------------------------------------------------------------------------------------------




--------------------------------------- Iteration      1(  17)  ---------------------------------------


    POTLOK:  cpu time    0.0171: real time    0.0171
    SETDIJ:  cpu time    0.0021: real time    0.0021
     EDDAV:  cpu time    5.0071: real time    5.0087
       DOS:  cpu time    0.0010: real time    0.0010
    CHARGE:  cpu time    0.1316: real time    0.1317
    MIXING:  cpu time    0.0011: real time    0.0011
    --------------------------------------------
      LOOP:  cpu time    5.1601: real time    5.1617

 eigenvalue-minimisations  :  5712
 total energy-change (2. order) :-0.2680597E-02  (-0.1308360E-01)
 number of electron     161.0000040 magnetization 
 augmentation part       50.0832869 magnetization 

 Broyden mixing:
  rms(total) = 0.10028E+00    rms(broyden)= 0.10027E+00
  rms(prec ) = 0.13223E+00
  weight for this iteration     100.00

 eigenvalues of (default mixing * dielectric matrix)
  average eigenvalue GAMMA=   0.8296
  2.3035  2.3035  1.3436  0.8404  0.8404  0.4982  0.4982  0.1407  0.2621  0.2621
  0.3311  0.3311

 Free energy of the ion-electron system (eV)
  ---------------------------------------------------
  alpha Z        PSCENC =       305.89839443
  Ewald energy   TEWEN  =     99027.89845496
  -Hartree energ DENC   =   -110943.51827682
  -exchange      EXHF   =         0.00000000
  -V(xc)+E(xc)   XCENC  =        43.29005685
  PAW double counting   =     14219.86940891   -13805.48181803
  entropy T*S    EENTRO =        -0.02482679
  eigenvalues    EBANDS =      -649.59877777
  atomic energy  EATOM  =     11706.16234457
  Solvation  Ediel_sol  =         0.00000000
  ---------------------------------------------------
  free energy    TOTEN  =       -95.50503968 eV

  energy without entropy =      -95.48021289  energy(sigma->0) =      -95.49676409


--------------------------------------------------------------------------------------------------------




--------------------------------------- Iteration      1(  18)  ---------------------------------------


    POTLOK:  cpu time    0.0170: real time    0.0170
    SETDIJ:  cpu time    0.0021: real time    0.0021
     EDDAV:  cpu time    4.4640: real time    4.4645
       DOS:  cpu time    0.0008: real time    0.0008
    CHARGE:  cpu time    0.1321: real time    0.1321
    MIXING:  cpu time    0.0012: real time    0.0012
    --------------------------------------------
      LOOP:  cpu time    4.6172: real time    4.6178

 eigenvalue-minimisations  :  5016
 total energy-change (2. order) : 0.9805653E-02  (-0.3705406E-02)
 number of electron     161.0000040 magnetization 
 augmentation part       50.0798494 magnetization 

 Broyden mixing:
  rms(total) = 0.46333E-01    rms(broyden)= 0.46329E-01
  rms(prec ) = 0.51382E-01
  weight for this iteration     100.00

 eigenvalues of (default mixing * dielectric matrix)
  average eigenvalue GAMMA=   0.8530
  2.3411  1.8199  1.8199  0.8982  0.8982  0.8966  0.5393  0.5393  0.1407  0.3359
  0.3359  0.2620  0.2620

 Free energy of the ion-electron system (eV)
  ---------------------------------------------------
  alpha Z        PSCENC =       305.89839443
  Ewald energy   TEWEN  =     99027.89845496
  -Hartree energ DENC   =   -110945.46428163
  -exchange      EXHF   =         0.00000000
  -V(xc)+E(xc)   XCENC  =        43.31017188
  PAW double counting   =     14211.54421969   -13797.07064380
  entropy T*S    EENTRO =        -0.02518542
  eigenvalues    EBANDS =      -647.74870868
  atomic energy  EATOM  =     11706.16234457
  Solvation  Ediel_sol  =         0.00000000
  ---------------------------------------------------
  free energy    TOTEN  =       -95.49523403 eV

  energy without entropy =      -95.47004860  energy(sigma->0) =      -95.48683889


--------------------------------------------------------------------------------------------------------




--------------------------------------- Iteration      1(  19)  ---------------------------------------


    POTLOK:  cpu time    0.0170: real time    0.0170
    SETDIJ:  cpu time    0.0021: real time    0.0021
     EDDAV:  cpu time    4.0946: real time    4.0952
       DOS:  cpu time    0.0010: real time    0.0010
    CHARGE:  cpu time    0.1333: real time    0.1333
    MIXING:  cpu time    0.0012: real time    0.0012
    --------------------------------------------
      LOOP:  cpu time    4.2493: real time    4.2498

 eigenvalue-minimisations  :  4584
 total energy-change (2. order) : 0.1438899E-03  (-0.6986647E-03)
 number of electron     161.0000040 magnetization 
 augmentation part       50.0774988 magnetization 

 Broyden mixing:
  rms(total) = 0.52013E-01    rms(broyden)= 0.52012E-01
  rms(prec ) = 0.64260E-01
  weight for this iteration     100.00

 eigenvalues of (default mixing * dielectric matrix)
  average eigenvalue GAMMA=   0.8936
  2.4877  2.0228  2.0228  1.0940  1.0940  0.7347  0.7347  0.4925  0.4925  0.1407
  0.2620  0.2620  0.3346  0.3346

 Free energy of the ion-electron system (eV)
  ---------------------------------------------------
  alpha Z        PSCENC =       305.89839443
  Ewald energy   TEWEN  =     99027.89845496
  -Hartree energ DENC   =   -110946.83214594
  -exchange      EXHF   =         0.00000000
  -V(xc)+E(xc)   XCENC  =        43.31078025
  PAW double counting   =     14226.05060260   -13811.63375712
  entropy T*S    EENTRO =        -0.02464667
  eigenvalues    EBANDS =      -646.32511721
  atomic energy  EATOM  =     11706.16234457
  Solvation  Ediel_sol  =         0.00000000
  ---------------------------------------------------
  free energy    TOTEN  =       -95.49509014 eV

  energy without entropy =      -95.47044346  energy(sigma->0) =      -95.48687458


--------------------------------------------------------------------------------------------------------




--------------------------------------- Iteration      1(  20)  ---------------------------------------


    POTLOK:  cpu time    0.0170: real time    0.0170
    SETDIJ:  cpu time    0.0021: real time    0.0021
     EDDAV:  cpu time    4.4667: real time    4.4683
       DOS:  cpu time    0.0010: real time    0.0010
    CHARGE:  cpu time    0.1328: real time    0.1328
    MIXING:  cpu time    0.0013: real time    0.0013
    --------------------------------------------
      LOOP:  cpu time    4.6210: real time    4.6226

 eigenvalue-minimisations  :  5016
 total energy-change (2. order) : 0.1669067E-02  (-0.3461852E-03)
 number of electron     161.0000040 magnetization 
 augmentation part       50.0744375 magnetization 

 Broyden mixing:
[...]
     86      -0.7977      1.42033
     87      -0.4761     -0.06685
     88      -0.0445     -0.00001
     89       0.1434     -0.00000
     90       1.1784     -0.00000
     91       1.9042     -0.00000
     92       2.1123     -0.00000
     93       3.2888     -0.00000
     94       3.9628     -0.00000
     95       4.0234     -0.00000
     96       4.4367     -0.00000

 k-point    19 :       0.4375    0.4375    0.0000
  band No.  band energies     occupation 
      1      -8.6782      2.00000
      2      -8.0098      2.00000
      3      -7.5624      2.00000
      4      -7.1816      2.00000
      5      -6.7299      2.00000
      6      -6.6459      2.00000
      7      -6.5952      2.00000
      8      -6.4871      2.00000
      9      -6.4429      2.00000
     10      -6.4108      2.00000
     11      -6.3765      2.00000
     12      -6.2470      2.00000
     13      -6.1172      2.00000
     14      -6.0335      2.00000
     15      -5.9723      2.00000
     16      -5.9121      2.00000
     17      -5.8111      2.00000
     18      -5.6111      2.00000
     19      -5.5250      2.00000
     20      -5.4403      2.00000
     21      -5.3134      2.00000
     22      -5.2643      2.00000
     23      -5.1574      2.00000
     24      -5.1368      2.00000
     25      -5.0614      2.00000
     26      -4.9564      2.00000
     27      -4.9480      2.00000
     28      -4.8529      2.00000
     29      -4.7394      2.00000
     30      -4.5963      2.00000
     31      -4.5543      2.00000
     32      -4.5231      2.00000
     33      -4.3962      2.00000
     34      -4.3593      2.00000
     35      -4.3069      2.00000
     36      -4.1572      2.00000
     37      -4.0616      2.00000
     38      -4.0105      2.00000
     39      -3.9086      2.00000
     40      -3.8037      2.00000
     41      -3.7776      2.00000
     42      -3.7643      2.00000
     43      -3.6608      2.00000
     44      -3.6532      2.00000
     45      -3.5774      2.00000
     46      -3.5502      2.00000
     47      -3.4816      2.00000
     48      -3.4628      2.00000
     49      -3.4148      2.00000
     50      -3.4034      2.00000
     51      -3.3615      2.00000
     52      -3.3065      2.00000
     53      -3.2523      2.00000
     54      -3.1643      2.00000
     55      -2.9742      2.00000
     56      -2.8917      2.00000
     57      -2.8332      2.00000
     58      -2.7713      2.00000
     59      -2.6298      2.00000
     60      -2.5894      2.00000
     61      -2.4307      2.00000
     62      -2.3932      2.00000
     63      -2.3495      2.00000
     64      -2.2809      2.00000
     65      -2.2680      2.00000
     66      -2.1781      2.00000
     67      -2.1076      2.00000
     68      -2.0068      2.00000
     69      -1.9873      2.00000
     70      -1.9462      2.00000
     71      -1.8899      2.00000
     72      -1.8677      2.00000
     73      -1.7027      2.00000
     74      -1.5089      2.00000
     75      -1.3536      2.00015
     76      -1.3359      2.00025
     77      -1.2556      2.00187
     78      -1.0413      2.05745
     79      -0.9491      2.05316
     80      -0.8433      1.72397
     81      -0.7815      1.29330
     82      -0.6971      0.59771
     83      -0.6460      0.25888
     84      -0.4777     -0.06729
     85      -0.4088     -0.03823
     86      -0.4013     -0.03498
     87       0.7083     -0.00000
     88       1.1506     -0.00000
     89       1.3558     -0.00000
     90       1.5299     -0.00000
     91       1.8198     -0.00000
     92       1.9719     -0.00000
     93       2.4591     -0.00000
     94       2.8655     -0.00000
     95       3.1245     -0.00000
     96       3.8943     -0.00000

 k-point    20 :      -0.4375    0.4375    0.0000
  band No.  band energies     occupation 
      1      -8.2855      2.00000
      2      -8.1902      2.00000
      3      -7.2905      2.00000
      4      -7.2104      2.00000
      5      -6.8146      2.00000
      6      -6.5907      2.00000
      7      -6.5447      2.00000
      8      -6.4188      2.00000
      9      -6.3332      2.00000
     10      -6.2095      2.00000
     11      -6.1970      2.00000
     12      -6.1822      2.00000
     13      -6.0828      2.00000
     14      -5.9947      2.00000
     15      -5.8534      2.00000
     16      -5.7353      2.00000
     17      -5.6958      2.00000
     18      -5.6399      2.00000
     19      -5.6033      2.00000
     20      -5.4308      2.00000
     21      -5.3176      2.00000
     22      -5.2375      2.00000
     23      -5.2224      2.00000
     24      -5.1077      2.00000
     25      -5.0705      2.00000
     26      -5.0301      2.00000
     27      -4.9459      2.00000
     28      -4.9242      2.00000
     29      -4.7998      2.00000
     30      -4.6040      2.00000
     31      -4.5327      2.00000
     32      -4.5064      2.00000
     33      -4.4524      2.00000
     34      -4.4013      2.00000
     35      -4.3480      2.00000
     36      -4.2464      2.00000
     37      -4.1421      2.00000
     38      -4.0998      2.00000
     39      -4.0582      2.00000
     40      -4.0109      2.00000
     41      -3.9544      2.00000
     42      -3.9134      2.00000
     43      -3.7698      2.00000
     44      -3.6850      2.00000
     45      -3.6693      2.00000
     46      -3.6520      2.00000
     47      -3.6400      2.00000
     48      -3.5524      2.00000
     49      -3.5393      2.00000
     50      -3.4983      2.00000
     51      -3.3579      2.00000
     52      -3.2974      2.00000
     53      -3.2631      2.00000
     54      -3.1277      2.00000
     55      -2.9670      2.00000
     56      -2.8391      2.00000
     57      -2.7904      2.00000
     58      -2.7591      2.00000
     59      -2.6239      2.00000
     60      -2.5754      2.00000
     61      -2.5142      2.00000
     62      -2.4214      2.00000
     63      -2.3105      2.00000
     64      -2.2564      2.00000
     65      -2.2135      2.00000
     66      -2.1433      2.00000
     67      -2.0789      2.00000
     68      -2.0315      2.00000
     69      -1.9189      2.00000
     70      -1.8495      2.00000
     71      -1.8273      2.00000
     72      -1.7629      2.00000
     73      -1.7321      2.00000
     74      -1.5266      2.00000
     75      -1.3800      2.00007
     76      -1.3637      2.00011
     77      -1.2688      2.00138
     78      -1.0871      2.03671
     79      -1.0145      2.06734
     80      -0.8937      1.94447
     81      -0.8377      1.69179
     82      -0.7874      1.34034
     83      -0.6458      0.25746
     84      -0.5871      0.02232
     85      -0.5396     -0.05647
     86      -0.3371     -0.01376
     87       0.2390     -0.00000
     88       0.5668     -0.00000
     89       0.8740     -0.00000
     90       1.5370     -0.00000
     91       1.5789     -0.00000
     92       2.3740     -0.00000
     93       2.7175     -0.00000
     94       3.2629     -0.00000
     95       3.5752     -0.00000
     96       4.0418     -0.00000


--------------------------------------------------------------------------------------------------------


 soft charge-density along one line, spin component           1
         0         1         2         3         4         5         6         7         8         9
 total charge-density along one line
 
 pseudopotential strength for first ion, spin component:           1
 -8.273   0.000  -0.000  -0.012  -0.000  -8.484   0.000  -0.000
  0.000  -8.188   0.000  -0.000  -0.012   0.000  -8.400   0.000
 -0.000   0.000  -8.197   0.000  -0.000  -0.000   0.000  -8.409
 -0.012  -0.000   0.000  -8.188   0.000  -0.012  -0.000   0.000
 -0.000  -0.012  -0.000   0.000  -8.273  -0.000  -0.012  -0.000
 -8.484   0.000  -0.000  -0.012  -0.000  -8.680   0.000  -0.000
  0.000  -8.400   0.000  -0.000  -0.012   0.000  -8.597   0.000
 -0.000   0.000  -8.409   0.000  -0.000  -0.000   0.000  -8.606
 -0.012  -0.000   0.000  -8.400   0.000  -0.012  -0.000   0.000
 -0.000  -0.012  -0.000   0.000  -8.484  -0.000  -0.012  -0.000
 -0.000  -0.000  -0.021  -0.000  -0.000  -0.000  -0.000  -0.021
 -0.000  -0.000  -0.033  -0.000  -0.000  -0.000  -0.000  -0.032
 -0.000  -0.007   0.000  -0.000   0.000  -0.000  -0.006   0.000
 -0.000   0.000  -0.014   0.000  -0.000  -0.000   0.000  -0.014
  0.000  -0.000   0.000  -0.007  -0.000   0.000  -0.000   0.000
 -0.000  -0.006   0.000  -0.000   0.000  -0.000  -0.006   0.000
 -0.000   0.000  -0.016   0.000  -0.000  -0.000   0.000  -0.016
  0.000  -0.000   0.000  -0.006  -0.000   0.000  -0.000   0.000
 total augmentation occupancy for first ion, spin component:           1
  2.563   0.000  -0.000  -0.269   0.000  -1.819  -0.000   0.000   0.071  -0.000  -0.000   0.000   0.000   0.000  -0.041  -0.000
  0.000   3.545   0.000   0.000  -0.269  -0.000  -1.956  -0.000  -0.000   0.078   0.000   0.000  -0.241   0.000  -0.000   0.008
 -0.000   0.000   3.479   0.000  -0.000   0.000  -0.000  -2.258  -0.000   0.000   0.673  -0.066   0.000  -0.231   0.000  -0.000
 -0.269   0.000   0.000   3.545  -0.000   0.078  -0.000  -0.000  -1.956   0.000   0.000   0.000  -0.000   0.000  -0.241   0.000
 -0.000  -0.269  -0.000  -0.000   2.563   0.000   0.071   0.000   0.000  -1.819  -0.000   0.000  -0.041   0.000  -0.000   0.003
 -1.819  -0.000   0.000   0.078   0.000   2.496  -0.000  -0.000   0.055   0.000   0.000  -0.000  -0.000  -0.000   0.042   0.000
  0.000  -1.956  -0.000  -0.000   0.071  -0.000   1.993  -0.000   0.000   0.055  -0.000   0.000   0.226   0.000   0.000  -0.015
  0.000  -0.000  -2.258  -0.000   0.000  -0.000  -0.000   2.557   0.000  -0.000  -0.719   0.092  -0.000   0.318  -0.000   0.000
  0.071  -0.000  -0.000  -1.956   0.000   0.055   0.000   0.000   1.993   0.000  -0.000  -0.000   0.000  -0.000   0.226  -0.000
  0.000   0.078   0.000   0.000  -1.819   0.000   0.055  -0.000   0.000   2.496   0.000  -0.000   0.042  -0.000   0.000  -0.003
 -0.000   0.000   0.673   0.000  -0.000   0.000   0.000  -0.719  -0.000   0.000   2.075  -0.341   0.000   0.165   0.000   0.000
  0.000   0.000  -0.066   0.000   0.000  -0.000   0.000   0.092  -0.000  -0.000  -0.341   0.073   0.000  -0.049   0.000  -0.000
  0.000  -0.241   0.000  -0.000  -0.041  -0.000   0.226  -0.000   0.000   0.042   0.000  -0.000   0.262  -0.000  -0.000  -0.014
  0.000  -0.000  -0.231   0.000   0.000  -0.000  -0.000   0.318  -0.000  -0.000   0.165  -0.049   0.000   0.143   0.000  -0.000
 -0.041  -0.000   0.000  -0.241  -0.000   0.042   0.000  -0.000   0.226   0.000   0.000   0.000   0.000   0.000   0.262  -0.000
 -0.000   0.008  -0.000   0.000   0.003   0.000  -0.015   0.000  -0.000  -0.003   0.000   0.000  -0.014   0.000  -0.000   0.001
  0.000  -0.000  -0.002   0.000   0.000   0.000   0.000  -0.018   0.000   0.000  -0.017   0.004   0.000  -0.009   0.000   0.000
  0.003   0.000  -0.000   0.008   0.000  -0.003  -0.000   0.000  -0.015  -0.000  -0.000  -0.000   0.000   0.000  -0.014   0.000


------------------------ aborting loop because EDIFF is reached ----------------------------------------



 DIPCOR: dipole corrections for dipol
 direction  3 min pos   281,
 dipolmoment           0.000000      0.000000     -0.047922 electrons x Angstroem
 Tr[quadrupol]      -956.765903

 energy correction for charged system         0.000000 eV
 dipol+quadrupol energy correction            0.000252 eV
 added-field ion interaction          0.000000 eV  (added to PSCEN)

 
  *************** adding dipol energy to TOTEN NOW **************** 
    CHARGE:  cpu time    0.1305: real time    0.1306
    FORLOC:  cpu time    0.0027: real time    0.0027
    FORNL :  cpu time    1.7862: real time    1.7864
    STRESS:  cpu time    3.2096: real time    3.2100
    FORCOR:  cpu time    0.0181: real time    0.0181
    FORHAR:  cpu time    0.0060: real time    0.0060
    MIXING:  cpu time    0.0020: real time    0.0020
    OFIELD:  cpu time    0.0000: real time    0.0000

  FORCE on cell =-STRESS in cart. coord.  units (eV):
  Direction    XX          YY          ZZ          XY          YZ          ZX
  --------------------------------------------------------------------------------------
  Alpha Z   305.89839   305.89839   305.89839
  Ewald  107900.31304107900.31304************     0.00000    -0.00000    -0.00000
  Hartree110243.64698110243.64698************    -0.00000     0.00000     0.00000
  E(xc)    -712.70618  -712.70620  -717.27416     0.00001    -0.00000    -0.00001
  Local  ************************223455.24677     0.00103    -0.00004    -0.00007
  n-local    95.36617    21.37023    43.33398   -21.10720    -4.08119     2.29443
  augment   835.11683   835.11772   860.25806    -0.00077     0.00000     0.00001
  Kinetic  2303.54221  2282.44843  2355.86339    -5.39562    -5.62740     3.77638
  Fock        0.00000     0.00000     0.00000     0.00000     0.00000     0.00000
  -------------------------------------------------------------------------------------
  Total     -11.44549   -11.44549    -0.28708     0.00000    -0.00000     0.00000
  in kB     -22.25104   -22.25104    -0.55812     0.00000    -0.00000     0.00000
  external pressure =      -15.02 kB  Pullay stress =        0.00 kB


 VOLUME and BASIS-vectors are now :
 -----------------------------------------------------------------------------
  energy-cutoff  :      350.00
  volume of cell :      824.13
      direct lattice vectors                 reciprocal lattice vectors
     5.557859300  0.000000000  0.000000000     0.179925390 -0.103879972  0.000000000
     2.778929650  4.813247345  0.000000000     0.000000000  0.207759944  0.000000000
     0.000000000  0.000000000 30.806959674     0.000000000  0.000000000  0.032460198

  length of vectors
     5.557859300  5.557859300 30.806959674     0.207759944  0.207759944  0.032460198


 FORCES acting on ions
    electron-ion (+dipol)            ewald-force                    non-local-force                 convergence-correction
 -----------------------------------------------------------------------------------------------
   -.230E-06 -.133E-06 0.258E+04   -.830E-12 -.363E-12 -.258E+04   0.239E-17 0.325E-17 -.506E-01   -.891E-10 -.515E-10 -.847E-02
   0.929E-06 -.229E+01 0.286E+04   -.100E-11 0.237E+01 -.286E+04   -.520E-17 0.854E-01 -.769E+00   -.200E-09 0.368E-03 -.921E-02
   -.199E+01 0.115E+01 0.286E+04   0.205E+01 -.118E+01 -.286E+04   0.739E-01 -.427E-01 -.769E+00   0.319E-03 -.184E-03 -.921E-02
   0.199E+01 0.115E+01 0.286E+04   -.205E+01 -.118E+01 -.286E+04   -.739E-01 -.427E-01 -.769E+00   -.319E-03 -.184E-03 -.921E-02
   0.855E+01 0.493E+01 0.102E+04   -.892E+01 -.515E+01 -.102E+04   0.153E+00 0.882E-01 -.453E+00   -.534E-03 -.308E-03 -.323E-01
   -.855E+01 0.493E+01 0.102E+04   0.892E+01 -.515E+01 -.102E+04   -.153E+00 0.882E-01 -.453E+00   0.534E-03 -.308E-03 -.323E-01
   0.723E-06 -.987E+01 0.102E+04   -.100E-11 0.103E+02 -.102E+04   0.694E-17 -.176E+00 -.453E+00   -.182E-10 0.616E-03 -.323E-01
   0.703E-06 0.406E-06 0.103E+04   0.390E-11 0.253E-11 -.103E+04   0.000E+00 0.542E-17 0.517E-01   0.467E-09 0.270E-09 -.315E-01
   -.149E-06 0.620E+00 -.900E+03   0.263E-11 -.102E+01 0.900E+03   -.694E-17 0.426E+00 0.168E+00   0.593E-09 -.116E-02 -.370E-01
   -.537E+00 -.310E+00 -.900E+03   0.886E+00 0.511E+00 0.900E+03   -.369E+00 -.213E+00 0.168E+00   0.101E-02 0.580E-03 -.370E-01
   0.537E+00 -.310E+00 -.900E+03   -.886E+00 0.511E+00 0.900E+03   0.369E+00 -.213E+00 0.168E+00   -.101E-02 0.580E-03 -.370E-01
   -.377E-06 -.218E-06 -.280E+04   0.182E-11 0.101E-11 0.281E+04   0.000E+00 -.113E-16 -.640E+01   0.726E-10 0.419E-10 -.141E-01
   0.252E-06 0.211E+01 -.280E+04   -.487E-11 -.243E+01 0.279E+04   -.694E-17 0.242E+00 0.128E+01   0.502E-08 -.462E-05 -.158E-01
   0.183E+01 -.106E+01 -.280E+04   -.210E+01 0.121E+01 0.279E+04   0.209E+00 -.121E+00 0.128E+01   -.400E-05 0.232E-05 -.158E-01
   -.183E+01 -.106E+01 -.280E+04   0.210E+01 0.121E+01 0.279E+04   -.209E+00 -.121E+00 0.128E+01   0.400E-05 0.231E-05 -.158E-01
   -.939E-06 -.542E-06 -.986E+03   -.298E-11 -.177E-11 0.985E+03   0.217E-18 0.434E-18 0.334E+00   -.570E-10 -.329E-10 -.421E-01
   -.706E-06 -.408E-06 -.377E+03   0.305E-13 0.115E-13 0.380E+03   0.628E-18 0.358E-18 -.310E+01   0.459E-10 0.265E-10 0.546E-03
 -----------------------------------------------------------------------------------------------
   -.130E-05 -.751E-06 0.887E+01   -.846E-14 0.287E-13 0.290E-11   -.269E-16 -.964E-16 -.850E+01   0.299E-08 0.173E-08 -.379E+00
 
 
 POSITION                                       TOTAL-FORCE (eV/Angst)
 -----------------------------------------------------------------------------------
      0.00000      0.00000     12.00000         0.000000     -0.000000      0.990961
      2.77893      0.00000     12.00000         0.000000      0.159576     -0.105975
      1.38946      2.40662     12.00000         0.138197     -0.079788     -0.105975
      4.16839      2.40662     12.00000        -0.138197     -0.079788     -0.105975
      1.38832      0.80154     14.33833        -0.220897     -0.127535     -0.477360
      4.16954      0.80154     14.33833         0.220897     -0.127535     -0.477360
      2.77893      3.21016     14.33833        -0.000000      0.255070     -0.477360
      5.55786      3.20883     14.30267         0.000000     -0.000000      0.097685
      5.55786      1.59830     16.63736         0.000000      0.022258      0.070585
      6.95262      4.01410     16.63736        -0.019276     -0.011129      0.070585
      4.16310      4.01410     16.63736         0.019276     -0.011129      0.070585
      0.00000      0.00000     19.07085         0.000000     -0.000000     -0.010707
      5.55786      4.80856     18.94595         0.000000     -0.072197      0.148763
      6.94326      2.40897     18.94595        -0.062524      0.036098      0.148763
      4.17246      2.40897     18.94595         0.062524      0.036098      0.148763
      2.77893      1.60442     16.63406         0.000000     -0.000000     -0.005173
      0.00000      0.00000     20.62632         0.000000     -0.000000      0.019198
 -----------------------------------------------------------------------------------
    total drift:                               -0.000001     -0.000001     -0.003356


--------------------------------------------------------------------------------------------------------



  FREE ENERGIE OF THE ION-ELECTRON SYSTEM (eV)
  ---------------------------------------------------
  free  energy   TOTEN  =       -95.49293451 eV

  energy  without entropy=      -95.46858818  energy(sigma->0) =      -95.48481907
 


--------------------------------------------------------------------------------------------------------


    POTLOK:  cpu time    0.0196: real time    0.0196


--------------------------------------------------------------------------------------------------------


     LOOP+:  cpu time  135.6989: real time  135.7646
    4ORBIT:  cpu time    0.0000: real time    0.0000

 total amount of memory used by VASP MPI-rank0   201964. kBytes
=======================================================================

   base      :      30000. kBytes
   nonl-proj :     145466. kBytes
   fftplans  :       2015. kBytes
   grid      :       8030. kBytes
   one-center:        264. kBytes
   wavefun   :      16189. kBytes
 
  
  
 General timing and accounting informations for this job:
 ========================================================
  
                  Total CPU time used (sec):      138.008
                            User time (sec):      137.578
                          System time (sec):        0.430
                         Elapsed time (sec):      138.238
  
                   Maximum memory used (kb):      234024.
                   Average memory used (kb):           0.
  
                          Minor page faults:        57663
                          Major page faults:            0
                 Voluntary context switches:          665
