  17  17   0   0
  0.4847811E+02  0.5557859E-09  0.5557859E-09  0.3080696E-08  0.5000000E-15
  1.000000000000000E-004
  CAR 
 unknown system                          
      6.45149198    -12.10837721  301     -0.73760834      1.00000000
    -12.108  0.0000E+00  0.0000E+00
    -12.047  0.0000E+00  0.0000E+00
    -11.985  0.0000E+00  0.0000E+00
    -11.923  0.0000E+00  0.0000E+00
    -11.861  0.0000E+00  0.0000E+00
    -11.799  0.0000E+00  0.0000E+00
    -11.737 -0.3640E-28 -0.2252E-29
    -11.675 -0.4893E-26 -0.3049E-27
    -11.613 -0.5436E-24 -0.3394E-25
    -11.552 -0.4979E-22 -0.3114E-23
    -11.490 -0.3759E-20 -0.2357E-21
    -11.428 -0.2338E-18 -0.1470E-19
    -11.366 -0.1198E-16 -0.7562E-18
    -11.304 -0.5060E-15 -0.3206E-16
    -11.242 -0.1703E-13 -0.1086E-14
    -11.180 -0.4860E-12 -0.3115E-13
    -11.119 -0.1139E-10 -0.7360E-12
    -11.057 -0.2195E-09 -0.1431E-10
    -10.995 -0.3470E-08 -0.2290E-09
    -10.933 -0.4499E-07 -0.3013E-08
    -10.871 -0.4777E-06 -0.3257E-07
    -10.809 -0.4145E-05 -0.2890E-06
    -10.747 -0.2931E-04 -0.2102E-05
    -10.685 -0.1682E-03 -0.1251E-04
    -10.624 -0.7787E-03 -0.6068E-04
    -10.562 -0.2880E-02 -0.2388E-03
    -10.500 -0.8362E-02 -0.7562E-03
    -10.438 -0.1840E-01 -0.1895E-02
    -10.376 -0.2800E-01 -0.3627E-02
    -10.314 -0.1882E-01 -0.4791E-02
    -10.252  0.3866E-01 -0.2399E-02
    -10.191  0.1650E+00  0.7806E-02
    -10.129  0.3482E+00  0.2935E-01
    -10.067  0.5481E+00  0.6325E-01
    -10.005  0.7260E+00  0.1082E+00
     -9.943  0.8598E+00  0.1614E+00
     -9.881  0.9322E+00  0.2190E+00
     -9.819  0.9280E+00  0.2764E+00
     -9.757  0.8582E+00  0.3295E+00
     -9.696  0.7755E+00  0.3775E+00
     -9.634  0.7558E+00  0.4243E+00
     -9.572  0.8430E+00  0.4764E+00
     -9.510  0.9926E+00  0.5378E+00
     -9.448  0.1093E+01  0.6054E+00
     -9.386  0.1069E+01  0.6716E+00
     -9.324  0.9545E+00  0.7306E+00
     -9.263  0.8350E+00  0.7823E+00
     -9.201  0.7588E+00  0.8292E+00
     -9.139  0.7371E+00  0.8748E+00
     -9.077  0.7999E+00  0.9243E+00
     -9.015  0.9880E+00  0.9854E+00
     -8.953  0.1277E+01  0.1064E+01
     -8.891  0.1557E+01  0.1161E+01
     -8.829  0.1733E+01  0.1268E+01
     -8.768  0.1812E+01  0.1380E+01
     -8.706  0.1855E+01  0.1495E+01
     -8.644  0.1878E+01  0.1611E+01
     -8.582  0.1846E+01  0.1725E+01
     -8.520  0.1775E+01  0.1835E+01
     -8.458  0.1775E+01  0.1945E+01
     -8.396  0.1957E+01  0.2066E+01
     -8.335  0.2295E+01  0.2208E+01
     -8.273  0.2607E+01  0.2369E+01
     -8.211  0.2705E+01  0.2536E+01
     -8.149  0.2568E+01  0.2695E+01
     -8.087  0.2348E+01  0.2841E+01
     -8.025  0.2190E+01  0.2976E+01
     -7.963  0.2128E+01  0.3108E+01
     -7.901  0.2171E+01  0.3242E+01
     -7.840  0.2432E+01  0.3393E+01
     -7.778  0.3065E+01  0.3582E+01
     -7.716  0.4044E+01  0.3832E+01
     -7.654  0.5127E+01  0.4150E+01
     -7.592  0.6084E+01  0.4526E+01
     -7.530  0.6917E+01  0.4954E+01
     -7.468  0.7790E+01  0.5436E+01
     -7.407  0.8806E+01  0.5981E+01
     -7.345  0.9972E+01  0.6597E+01
     -7.283  0.1126E+02  0.7294E+01
     -7.221  0.1256E+02  0.8071E+01
     -7.159  0.1361E+02  0.8914E+01
     -7.097  0.1413E+02  0.9788E+01
     -7.035  0.1405E+02  0.1066E+02
     -6.973  0.1363E+02  0.1150E+02
     -6.912  0.1338E+02  0.1233E+02
     -6.850  0.1373E+02  0.1318E+02
     -6.788  0.1478E+02  0.1409E+02
     -6.726  0.1621E+02  0.1509E+02
     -6.664  0.1769E+02  0.1619E+02
     -6.602  0.1915E+02  0.1737E+02
     -6.540  0.2072E+02  0.1866E+02
     -6.479  0.2235E+02  0.2004E+02
     -6.417  0.2367E+02  0.2150E+02
     -6.355  0.2430E+02  0.2301E+02
     -6.293  0.2419E+02  0.2450E+02
     -6.231  0.2359E+02  0.2596E+02
     -6.169  0.2282E+02  0.2737E+02
     -6.107  0.2204E+02  0.2874E+02
     -6.045  0.2117E+02  0.3005E+02
     -5.984  0.2014E+02  0.3129E+02
     -5.922  0.1893E+02  0.3246E+02
     -5.860  0.1755E+02  0.3355E+02
     -5.798  0.1608E+02  0.3454E+02
     -5.736  0.1480E+02  0.3546E+02
     -5.674  0.1421E+02  0.3634E+02
     -5.612  0.1482E+02  0.3726E+02
     -5.551  0.1668E+02  0.3829E+02
     -5.489  0.1927E+02  0.3948E+02
     -5.427  0.2152E+02  0.4081E+02
     -5.365  0.2244E+02  0.4220E+02
     -5.303  0.2176E+02  0.4355E+02
     -5.241  0.2030E+02  0.4480E+02
     -5.179  0.1945E+02  0.4601E+02
     -5.117  0.2000E+02  0.4724E+02
     -5.056  0.2157E+02  0.4858E+02
     -4.994  0.2304E+02  0.5000E+02
     -4.932  0.2348E+02  0.5146E+02
     -4.870  0.2275E+02  0.5286E+02
     -4.808  0.2139E+02  0.5419E+02
     -4.746  0.2039E+02  0.5545E+02
     -4.684  0.2058E+02  0.5672E+02
     -4.623  0.2211E+02  0.5809E+02
     -4.561  0.2421E+02  0.5959E+02
     -4.499  0.2578E+02  0.6118E+02
     -4.437  0.2625E+02  0.6281E+02
     -4.375  0.2595E+02  0.6441E+02
     -4.313  0.2568E+02  0.6600E+02
     -4.251  0.2614E+02  0.6762E+02
     -4.189  0.2756E+02  0.6932E+02
     -4.128  0.2964E+02  0.7116E+02
     -4.066  0.3166E+02  0.7311E+02
     -4.004  0.3281E+02  0.7514E+02
     -3.942  0.3289E+02  0.7718E+02
     -3.880  0.3243E+02  0.7919E+02
     -3.818  0.3228E+02  0.8118E+02
     -3.756  0.3285E+02  0.8322E+02
     -3.695  0.3382E+02  0.8531E+02
     -3.633  0.3433E+02  0.8743E+02
     -3.571  0.3365E+02  0.8951E+02
     -3.509  0.3172E+02  0.9148E+02
     -3.447  0.2918E+02  0.9328E+02
     -3.385  0.2684E+02  0.9494E+02
     -3.323  0.2493E+02  0.9648E+02
     -3.262  0.2305E+02  0.9791E+02
     -3.200  0.2089E+02  0.9920E+02
     -3.138  0.1884E+02  0.1004E+03
     -3.076  0.1783E+02  0.1015E+03
     -3.014  0.1866E+02  0.1026E+03
     -2.952  0.2125E+02  0.1039E+03
     -2.890  0.2462E+02  0.1055E+03
     -2.828  0.2741E+02  0.1072E+03
     -2.767  0.2858E+02  0.1089E+03
     -2.705  0.2792E+02  0.1107E+03
     -2.643  0.2601E+02  0.1123E+03
     -2.581  0.2386E+02  0.1137E+03
     -2.519  0.2234E+02  0.1151E+03
     -2.457  0.2176E+02  0.1165E+03
     -2.395  0.2184E+02  0.1178E+03
     -2.334  0.2210E+02  0.1192E+03
     -2.272  0.2225E+02  0.1206E+03
     -2.210  0.2227E+02  0.1219E+03
     -2.148  0.2242E+02  0.1233E+03
     -2.086  0.2302E+02  0.1248E+03
     -2.024  0.2419E+02  0.1262E+03
     -1.962  0.2568E+02  0.1278E+03
     -1.900  0.2703E+02  0.1295E+03
     -1.839  0.2786E+02  0.1312E+03
     -1.777  0.2793E+02  0.1330E+03
     -1.715  0.2721E+02  0.1346E+03
     -1.653  0.2591E+02  0.1362E+03
     -1.591  0.2450E+02  0.1378E+03
     -1.529  0.2340E+02  0.1392E+03
     -1.467  0.2275E+02  0.1406E+03
     -1.406  0.2252E+02  0.1420E+03
     -1.344  0.2286E+02  0.1434E+03
     -1.282  0.2400E+02  0.1449E+03
     -1.220  0.2590E+02  0.1465E+03
     -1.158  0.2808E+02  0.1482E+03
     -1.096  0.2992E+02  0.1501E+03
     -1.034  0.3107E+02  0.1520E+03
     -0.972  0.3150E+02  0.1540E+03
     -0.911  0.3131E+02  0.1559E+03
     -0.849  0.3058E+02  0.1578E+03
     -0.787  0.2939E+02  0.1596E+03
     -0.725  0.2789E+02  0.1613E+03
     -0.663  0.2621E+02  0.1630E+03
     -0.601  0.2436E+02  0.1645E+03
     -0.539  0.2226E+02  0.1658E+03
     -0.478  0.1981E+02  0.1671E+03
     -0.416  0.1705E+02  0.1681E+03
     -0.354  0.1421E+02  0.1690E+03
     -0.292  0.1177E+02  0.1697E+03
     -0.230  0.1013E+02  0.1704E+03
     -0.168  0.9267E+01  0.1709E+03
     -0.106  0.8751E+01  0.1715E+03
     -0.044  0.8102E+01  0.1720E+03
      0.017  0.7131E+01  0.1724E+03
      0.079  0.5998E+01  0.1728E+03
      0.141  0.4993E+01  0.1731E+03
      0.203  0.4305E+01  0.1734E+03
      0.265  0.3967E+01  0.1736E+03
      0.327  0.3946E+01  0.1739E+03
      0.389  0.4242E+01  0.1741E+03
      0.450  0.4889E+01  0.1744E+03
      0.512  0.5839E+01  0.1748E+03
      0.574  0.6791E+01  0.1752E+03
      0.636  0.7234E+01  0.1757E+03
      0.698  0.6827E+01  0.1761E+03
      0.760  0.5771E+01  0.1764E+03
      0.822  0.4689E+01  0.1767E+03
      0.884  0.4122E+01  0.1770E+03
      0.945  0.4205E+01  0.1772E+03
      1.007  0.4735E+01  0.1775E+03
      1.069  0.5373E+01  0.1779E+03
      1.131  0.5738E+01  0.1782E+03
      1.193  0.5548E+01  0.1786E+03
      1.255  0.4816E+01  0.1789E+03
      1.317  0.3900E+01  0.1791E+03
      1.378  0.3289E+01  0.1793E+03
      1.440  0.3336E+01  0.1795E+03
      1.502  0.4059E+01  0.1798E+03
      1.564  0.5108E+01  0.1801E+03
      1.626  0.5989E+01  0.1804E+03
      1.688  0.6449E+01  0.1808E+03
      1.750  0.6597E+01  0.1813E+03
      1.812  0.6573E+01  0.1817E+03
      1.873  0.6267E+01  0.1820E+03
      1.935  0.5529E+01  0.1824E+03
      1.997  0.4534E+01  0.1827E+03
      2.059  0.3743E+01  0.1829E+03
      2.121  0.3494E+01  0.1831E+03
      2.183  0.3735E+01  0.1833E+03
      2.245  0.4166E+01  0.1836E+03
      2.306  0.4593E+01  0.1839E+03
      2.368  0.5086E+01  0.1842E+03
      2.430  0.5808E+01  0.1846E+03
      2.492  0.6666E+01  0.1850E+03
      2.554  0.7204E+01  0.1854E+03
      2.616  0.6968E+01  0.1859E+03
      2.678  0.6021E+01  0.1862E+03
      2.740  0.4957E+01  0.1865E+03
      2.801  0.4336E+01  0.1868E+03
      2.863  0.4205E+01  0.1871E+03
      2.925  0.4231E+01  0.1873E+03
      2.987  0.4147E+01  0.1876E+03
      3.049  0.3995E+01  0.1878E+03
      3.111  0.3989E+01  0.1881E+03
      3.173  0.4195E+01  0.1883E+03
      3.234  0.4389E+01  0.1886E+03
      3.296  0.4278E+01  0.1889E+03
      3.358  0.3856E+01  0.1891E+03
      3.420  0.3415E+01  0.1893E+03
      3.482  0.3209E+01  0.1895E+03
      3.544  0.3200E+01  0.1897E+03
      3.606  0.3185E+01  0.1899E+03
      3.668  0.3081E+01  0.1901E+03
      3.729  0.2984E+01  0.1903E+03
      3.791  0.3034E+01  0.1905E+03
      3.853  0.3254E+01  0.1907E+03
      3.915  0.3500E+01  0.1909E+03
      3.977  0.3563E+01  0.1911E+03
      4.039  0.3334E+01  0.1913E+03
      4.101  0.2892E+01  0.1915E+03
      4.162  0.2402E+01  0.1916E+03
      4.224  0.1945E+01  0.1918E+03
      4.286  0.1498E+01  0.1919E+03
      4.348  0.1048E+01  0.1919E+03
      4.410  0.6491E+00  0.1920E+03
      4.472  0.3600E+00  0.1920E+03
      4.534  0.1810E+00  0.1920E+03
      4.596  0.7373E-01  0.1920E+03
      4.657  0.1087E-01  0.1920E+03
      4.719 -0.1749E-01  0.1920E+03
      4.781 -0.2112E-01  0.1920E+03
      4.843 -0.1398E-01  0.1920E+03
      4.905 -0.6565E-02  0.1920E+03
      4.967 -0.2341E-02  0.1920E+03
      5.029 -0.6529E-03  0.1920E+03
      5.090 -0.1448E-03  0.1920E+03
      5.152 -0.2578E-04  0.1920E+03
      5.214 -0.3711E-05  0.1920E+03
      5.276 -0.4337E-06  0.1920E+03
      5.338 -0.4130E-07  0.1920E+03
      5.400 -0.3212E-08  0.1920E+03
      5.462 -0.2045E-09  0.1920E+03
      5.523 -0.1067E-10  0.1920E+03
      5.585 -0.4564E-12  0.1920E+03
      5.647 -0.1615E-13  0.1920E+03
      5.709 -0.4486E-15  0.1920E+03
      5.771  0.0000E+00  0.1920E+03
      5.833  0.0000E+00  0.1920E+03
      5.895  0.0000E+00  0.1920E+03
      5.957  0.0000E+00  0.1920E+03
      6.018  0.0000E+00  0.1920E+03
      6.080  0.0000E+00  0.1920E+03
      6.142  0.0000E+00  0.1920E+03
      6.204  0.0000E+00  0.1920E+03
      6.266  0.0000E+00  0.1920E+03
      6.328  0.0000E+00  0.1920E+03
      6.390  0.0000E+00  0.1920E+03
      6.451  0.0000E+00  0.1920E+03
