 vasp.5.4.4.18Apr17-6-g9f103f2a35 (build Apr 28 2017 10:53:45) complex          
  
 executed on             LinuxIFC date 2020.02.16  21:23:45
 running on   24 total cores
 distrk:  each k-point on   24 cores,    1 groups
 distr:  one band on NCORES_PER_BAND=   1 cores,   24 groups


--------------------------------------------------------------------------------------------------------


 INCAR:
 POTCAR:    PAW_PBE Ir 06Sep2000                  
 POTCAR:    PAW_PBE Pt 04Feb2005                  
 POTCAR:    PAW_PBE Au 04Oct2007                  
 POTCAR:    PAW_PBE H 15Jun2001                   

 ----------------------------------------------------------------------------- 
|                                                                             |
|           W    W    AA    RRRRR   N    N  II  N    N   GGGG   !!!           |
|           W    W   A  A   R    R  NN   N  II  NN   N  G    G  !!!           |
|           W    W  A    A  R    R  N N  N  II  N N  N  G       !!!           |
|           W WW W  AAAAAA  RRRRR   N  N N  II  N  N N  G  GGG   !            |
|           WW  WW  A    A  R   R   N   NN  II  N   NN  G    G                |
|           W    W  A    A  R    R  N    N  II  N    N   GGGG   !!!           |
|                                                                             |
|      For optimal performance we recommend to set                            |
|        NCORE= 4 - approx SQRT( number of cores)                             |
|      NCORE specifies how many cores store one orbital (NPAR=cpu/NCORE).     |
|      This setting can  greatly improve the performance of VASP for DFT.     |
|      The default,   NCORE=1            might be grossly inefficient         |
|      on modern multi-core architectures or massively parallel machines.     |
|      Do your own testing !!!!                                               |
|      Unfortunately you need to use the default for GW and RPA calculations. |
|      (for HF NCORE is supported but not extensively tested yet)             |
|                                                                             |
 ----------------------------------------------------------------------------- 

 POTCAR:    PAW_PBE Ir 06Sep2000                  
   SHA256 =  7c6af8d4d487b237782eb51e6f62977b27a1da78c3c96acd1cebefd6c308f120 Ir
   COPYR  = (c) Copyright 06Sep2000 Georg Kresse                                
   COPYR  = This file is part of the software VASP. Any use, copying, and all ot
   COPYR  = If you do not have a valid VASP license, you may not use, copy or di
   VRHFIN =Ir: s1d8                                                             
   LEXCH  = PE                                                                  
   EATOM  =   560.1833 eV,   41.1723 Ry                                         
                                                                                
   TITEL  = PAW_PBE Ir 06Sep2000                                                
   LULTRA =        F    use ultrasoft PP ?                                      
   IUNSCR =        1    unscreen: 0-lin 1-nonlin 2-no                           
   RPACOR =    2.250    partial core radius                                     
   POMASS =  192.220; ZVAL   =    9.000    mass and valenz                      
   RCORE  =    2.600    outmost cutoff radius                                   
   RWIGS  =    2.690; RWIGS  =    1.423    wigner-seitz radius (au A)           
   ENMAX  =  210.864; ENMIN  =  158.148 eV                                      
   RCLOC  =    1.857    cutoff for local pot                                    
   LCOR   =        T    correct aug charges                                     
   LPAW   =        T    paw PP                                                  
   EAUG   =  318.962                                                            
   DEXC   =    0.000                                                            
   RMAX   =    2.667    core radius for proj-oper                               
   RAUG   =    1.300    factor for augmentation sphere                          
   RDEP   =    2.748    radius for radial grids                                 
   RDEPT  =    2.300    core radius for aug-charge                              
                                                                                
   Atomic configuration                                                         
   16 entries                                                                   
     n  l   j            E        occ.                                          
     1  0  0.50    -76100.0449   2.0000                                         
     2  0  0.50    -13308.1683   2.0000                                         
     2  1  1.50    -11558.0021   6.0000                                         
     3  0  0.50     -3110.7274   2.0000                                         
     3  1  1.50     -2599.2109   6.0000                                         
     3  2  2.50     -2037.1515  10.0000                                         
     4  0  0.50      -661.6001   2.0000                                         
     4  1  1.50      -493.8981   6.0000                                         
     4  2  2.50      -288.1909  10.0000                                         
     4  3  3.50       -59.5718  14.0000                                         
     5  0  0.50       -95.3879   2.0000                                         
     5  1  1.50       -52.2747   6.0000                                         
     5  2  2.50        -5.4180   8.0000                                         
     6  0  0.50        -5.5479   1.0000                                         
     6  1  1.50        -6.8029   0.0000                                         
     5  3  2.50        -1.3606   0.0000                                         
   Description                                                                  
     l       E           TYP  RCUT    TYP  RCUT                                 
     2     -5.4179967     23  2.600                                             
     2     -6.7785793     23  2.600                                             
     0     -5.5478636     23  2.600                                             
     0      2.2542272     23  2.600                                             
     1     -2.7211652     23  2.600                                             
     1     20.4087390     23  2.600                                             
  local pseudopotential read in
  partial core-charges read in
  partial kinetic energy density read in
  atomic valenz-charges read in
  non local Contribution for L=           2  read in
    real space projection operators read in
  non local Contribution for L=           2  read in
    real space projection operators read in
  non local Contribution for L=           0  read in
    real space projection operators read in
  non local Contribution for L=           0  read in
    real space projection operators read in
  non local Contribution for L=           1  read in
    real space projection operators read in
  non local Contribution for L=           1  read in
    real space projection operators read in
    PAW grid and wavefunctions read in
 
   number of l-projection  operators is LMAX  =           6
   number of lm-projection operators is LMMAX =          18
 
 POTCAR:    PAW_PBE Pt 04Feb2005                  
   SHA256 =  3ed90460adef76debcff1cfb73ee1349b515b1a3db03439735b44de3a8db7dc8 Pt
   COPYR  = (c) Copyright 04Feb2005 Georg Kresse                                
   COPYR  = This file is part of the software VASP. Any use, copying, and all ot
   COPYR  = If you do not have a valid VASP license, you may not use, copy or di
   VRHFIN =Pt: s1d9                                                             
   LEXCH  = PE                                                                  
   EATOM  =   729.1176 eV,   53.5886 Ry                                         
                                                                                
   TITEL  = PAW_PBE Pt 04Feb2005                                                
   LULTRA =        F    use ultrasoft PP ?                                      
   IUNSCR =        1    unscreen: 0-lin 1-nonlin 2-no                           
   RPACOR =    2.330    partial core radius                                     
   POMASS =  195.080; ZVAL   =   10.000    mass and valenz                      
   RCORE  =    2.600    outmost cutoff radius                                   
   RWIGS  =    2.750; RWIGS  =    1.455    wigner-seitz radius (au A)           
   ENMAX  =  230.283; ENMIN  =  172.712 eV                                      
   ICORE  =        3    local potential                                         
   LCOR   =        T    correct aug charges                                     
   LPAW   =        T    paw PP                                                  
   EAUG   =  358.966                                                            
   DEXC   =    0.000                                                            
   RMAX   =    2.658    core radius for proj-oper                               
   RAUG   =    1.300    factor for augmentation sphere                          
   RDEP   =    2.761    radius for radial grids                                 
   RDEPT  =    2.203    core radius for aug-charge                              
                                                                                
   Atomic configuration                                                         
   16 entries                                                                   
     n  l   j            E        occ.                                          
     1  0  0.50    -78401.1885   2.0000                                         
     2  0  0.50    -13770.7750   2.0000                                         
     2  1  1.50    -11931.0468   6.0000                                         
     3  0  0.50     -3234.7234   2.0000                                         
     3  1  1.50     -2699.2216   6.0000                                         
     3  2  2.50     -2119.5714  10.0000                                         
     4  0  0.50      -695.1528   2.0000                                         
     4  1  1.50      -519.6034   6.0000                                         
     4  2  2.50      -306.6786  10.0000                                         
     4  3  3.50       -70.1041  14.0000                                         
     5  0  0.50      -101.7747   2.0000                                         
     5  1  1.50       -55.9873   6.0000                                         
     5  2  2.50        -6.1423   9.0000                                         
     6  0  0.50        -5.6573   1.0000                                         
     6  1  1.50        -6.8029   0.0000                                         
     5  3  2.50        -1.3606   0.0000                                         
   Description                                                                  
     l       E           TYP  RCUT    TYP  RCUT                                 
     2     -6.1423404     23  2.500                                             
     2     -7.5029230     23  2.500                                             
     0     -5.6573207     23  2.500                                             
     0      0.7416693     23  2.500                                             
     1     -2.7211652     23  2.600                                             
     1     20.4087390     23  2.600                                             
     3     -1.3605826     23  2.500                                             
  local pseudopotential read in
  partial core-charges read in
  partial kinetic energy density read in
  atomic valenz-charges read in
  non local Contribution for L=           2  read in
    real space projection operators read in
  non local Contribution for L=           2  read in
    real space projection operators read in
  non local Contribution for L=           0  read in
    real space projection operators read in
  non local Contribution for L=           0  read in
    real space projection operators read in
  non local Contribution for L=           1  read in
    real space projection operators read in
  non local Contribution for L=           1  read in
    real space projection operators read in
    PAW grid and wavefunctions read in
 
   number of l-projection  operators is LMAX  =           6
   number of lm-projection operators is LMMAX =          18
 
 POTCAR:    PAW_PBE Au 04Oct2007                  
   SHA256 =  d0044ae04e2bdce24051b198fc5c053d722a5bc6fe3c3b100514a13fc5d2db88 Au
   COPYR  = (c) Copyright 04Oct2007 Georg Kresse                                
   COPYR  = This file is part of the software VASP. Any use, copying, and all ot
   COPYR  = If you do not have a valid VASP license, you may not use, copy or di
   VRHFIN =Au: s1d10                                                            
   LEXCH  = PE                                                                  
   EATOM  =   926.0867 eV,   68.0654 Ry                                         
                                                                                
   TITEL  = PAW_PBE Au 04Oct2007                                                
   LULTRA =        F    use ultrasoft PP ?                                      
   IUNSCR =        1    unscreen: 0-lin 1-nonlin 2-no                           
   RPACOR =    2.330    partial core radius                                     
   POMASS =  196.966; ZVAL   =   11.000    mass and valenz                      
   RCORE  =    2.500    outmost cutoff radius                                   
   RWIGS  =    2.840; RWIGS  =    1.503    wigner-seitz radius (au A)           
   ENMAX  =  229.943; ENMIN  =  172.457 eV                                      
   ICORE  =        3    local potential                                         
   LCOR   =        T    correct aug charges                                     
   LPAW   =        T    paw PP                                                  
   EAUG   =  356.670                                                            
   DEXC   =    0.000                                                            
   RMAX   =    2.562    core radius for proj-oper                               
   RAUG   =    1.300    factor for augmentation sphere                          
   RDEP   =    2.598    radius for radial grids                                 
   RDEPT  =    2.193    core radius for aug-charge                              
                                                                                
   Atomic configuration                                                         
   16 entries                                                                   
     n  l   j            E        occ.                                          
     1  0  0.50    -80748.5001   2.0000                                         
     2  0  0.50    -14244.7466   2.0000                                         
     2  1  1.50    -12310.9591   6.0000                                         
     3  0  0.50     -3362.1768   2.0000                                         
     3  1  1.50     -2801.5463   6.0000                                         
     3  2  2.50     -2203.8206  10.0000                                         
     4  0  0.50      -729.8168   2.0000                                         
     4  1  1.50      -546.0527   6.0000                                         
     4  2  2.50      -325.7302  10.0000                                         
     4  3  3.50       -81.1472  14.0000                                         
     5  0  0.50      -108.3201   2.0000                                         
     5  1  1.50       -59.7479   6.0000                                         
     5  2  2.50        -6.8783  10.0000                                         
     6  0  0.50        -5.7602   1.0000                                         
     6  1  1.50        -6.8029   0.0000                                         
     5  3  2.50        -1.3606   0.0000                                         
   Description                                                                  
     l       E           TYP  RCUT    TYP  RCUT                                 
     2     -6.8782861     23  2.500                                             
     2     -8.2388687     23  2.500                                             
     0     -5.7601759     23  2.500                                             
     0     -0.8493231     23  2.500                                             
     1     -2.7211652     23  2.500                                             
     1     27.2116520     23  2.500                                             
     3     -1.3605826     23  2.500                                             
  local pseudopotential read in
  partial core-charges read in
  partial kinetic energy density read in
  atomic valenz-charges read in
  non local Contribution for L=           2  read in
    real space projection operators read in
  non local Contribution for L=           2  read in
    real space projection operators read in
  non local Contribution for L=           0  read in
    real space projection operators read in
  non local Contribution for L=           0  read in
    real space projection operators read in
  non local Contribution for L=           1  read in
    real space projection operators read in
  non local Contribution for L=           1  read in
    real space projection operators read in
    PAW grid and wavefunctions read in
 
   number of l-projection  operators is LMAX  =           6
   number of lm-projection operators is LMMAX =          18
 
 POTCAR:    PAW_PBE H 15Jun2001                   
   SHA256 =  030f79b5d3ab3cf0e668861823c8fb652ff669f3e15e46930bd03bfd63a607b6 H/
   COPYR  = (c) Copyright 15Jun2001 Georg Kresse                                
   COPYR  = This file is part of the software VASP. Any use, copying, and all ot
   COPYR  = If you do not have a valid VASP license, you may not use, copy or di
   VRHFIN =H: ultrasoft test                                                    
   LEXCH  = PE                                                                  
   EATOM  =    12.4884 eV,    0.9179 Ry                                         
                                                                                
   TITEL  = PAW_PBE H 15Jun2001                                                 
   LULTRA =        F    use ultrasoft PP ?                                      
   IUNSCR =        0    unscreen: 0-lin 1-nonlin 2-no                           
   RPACOR =    0.000    partial core radius                                     
   POMASS =    1.000; ZVAL   =    1.000    mass and valenz                      
   RCORE  =    1.100    outmost cutoff radius                                   
   RWIGS  =    0.700; RWIGS  =    0.370    wigner-seitz radius (au A)           
   ENMAX  =  250.000; ENMIN  =  200.000 eV                                      
   RCLOC  =    0.701    cutoff for local pot                                    
   LCOR   =        T    correct aug charges                                     
   LPAW   =        T    paw PP                                                  
   EAUG   =  400.000                                                            
   RMAX   =    1.123    core radius for proj-oper                               
   RAUG   =    1.200    factor for augmentation sphere                          
   RDEP   =    1.112    radius for radial grids                                 
   RDEPT  =    0.926    core radius for aug-charge                              
                                                                                
   Atomic configuration                                                         
    2 entries                                                                   
     n  l   j            E        occ.                                          
     1  0  0.50        -6.4927   1.0000                                         
     2  1  0.50        -3.4015   0.0000                                         
   Description                                                                  
     l       E           TYP  RCUT    TYP  RCUT                                 
     0     -6.4927494     23  1.100                                             
     0      6.8029130     23  1.100                                             
     1     -4.0817478     23  1.100                                             
  local pseudopotential read in
  atomic valenz-charges read in
  non local Contribution for L=           0  read in
    real space projection operators read in
  non local Contribution for L=           0  read in
    real space projection operators read in
  non local Contribution for L=           1  read in
    real space projection operators read in
    PAW grid and wavefunctions read in
 
   number of l-projection  operators is LMAX  =           3
   number of lm-projection operators is LMMAX =           5
 

 ----------------------------------------------------------------------------- 
|                                                                             |
|  ADVICE TO THIS USER RUNNING 'VASP/VAMP'   (HEAR YOUR MASTER'S VOICE ...):  |
|                                                                             |
|      You have a (more or less) 'large supercell' and for larger cells       |
|      it might be more efficient to use real space projection opertators     |
|      So try LREAL= Auto  in the INCAR   file.                               |
|      Mind:          For very  accurate calculation you might also keep the  |
|      reciprocal projection scheme          (i.e. LREAL=.FALSE.)             |
|                                                                             |
 ----------------------------------------------------------------------------- 

  PAW_PBE Ir 06Sep2000                  :
 energy of atom  1       EATOM= -560.1833
 kinetic energy error for atom=    0.0056 (will be added to EATOM!!)
  PAW_PBE Pt 04Feb2005                  :
 energy of atom  2       EATOM= -729.1176
 kinetic energy error for atom=    0.0144 (will be added to EATOM!!)
  PAW_PBE Au 04Oct2007                  :
 energy of atom  3       EATOM= -926.0867
 kinetic energy error for atom=    0.0152 (will be added to EATOM!!)
  PAW_PBE H 15Jun2001                   :
 energy of atom  4       EATOM=  -12.4884
 kinetic energy error for atom=    0.0203 (will be added to EATOM!!)
 
 
 POSCAR: Ir Pt Au  H                             
  positions in cartesian coordinates
  No initial velocities read in
 exchange correlation table for  LEXCH =        8
   RHO(1)=    0.500       N(1)  =     2000
   RHO(2)=  100.500       N(2)  =     4000
 


--------------------------------------------------------------------------------------------------------


 ion  position               nearest neighbor table
   1  0.000  0.000  0.390-   3 2.78   3 2.78   4 2.78   4 2.78   2 2.78   2 2.78   5 2.84   7 2.84
                             6 2.84
   2  0.500  0.000  0.390-   4 2.78   3 2.78   4 2.78   3 2.78   1 2.78   1 2.78   8 2.81   6 2.84
                             5 2.84
   3  0.000  0.500  0.390-   1 2.78   1 2.78   2 2.78   2 2.78   4 2.78   4 2.78   8 2.81   7 2.84
                             5 2.84
   4  0.500  0.500  0.390-   2 2.78   1 2.78   2 2.78   1 2.78   3 2.78   3 2.78   8 2.81   7 2.84
                             6 2.84
   5  0.167  0.167  0.465-   7 2.78   6 2.78   8 2.78   8 2.78   7 2.78   6 2.78  11 2.80  16 2.80
                             9 2.80   1 2.84   3 2.84   2 2.84
   6  0.667  0.167  0.465-   7 2.78   5 2.78   8 2.78   8 2.78   7 2.78   5 2.78  10 2.80  16 2.80
                             9 2.80   1 2.84   2 2.84   4 2.84
   7  0.167  0.667  0.465-   5 2.78   6 2.78   8 2.78   8 2.78   6 2.78   5 2.78  10 2.80  11 2.80
                             9 2.80   1 2.84   3 2.84   4 2.84
   8  0.667  0.667  0.464-   6 2.78   7 2.78   5 2.78   5 2.78   6 2.78   7 2.78   4 2.81   3 2.81
                             2 2.81  11 2.84  16 2.84  10 2.84
   9  0.333  0.333  0.540-  10 2.78  10 2.78  11 2.78  11 2.78  16 2.78  16 2.78   6 2.80   7 2.80
                             5 2.80  14 2.82  15 2.82  13 2.82
  10  0.834  0.834  0.540-  16 2.77  11 2.77   9 2.78   9 2.78  16 2.79  11 2.79   6 2.80   7 2.80
                            14 2.81  13 2.81   8 2.84  12 2.91
  11  0.332  0.834  0.540-  16 2.77  10 2.77   9 2.78   9 2.78  16 2.79  10 2.79   5 2.80   7 2.80
                            13 2.81  15 2.81   8 2.84  12 2.91
  12  0.000  0.000  0.619-  17 1.56  14 2.78  13 2.78  15 2.78  15 2.78  13 2.78  14 2.78  10 2.91
                            16 2.91  11 2.91
  13  0.500  0.999  0.615-  14 2.77  15 2.77  12 2.78  12 2.78  14 2.79  15 2.79  11 2.81  10 2.81
                             9 2.82
  14  0.999  0.500  0.615-  13 2.77  15 2.77  12 2.78  12 2.78  13 2.79  15 2.79  16 2.81  10 2.81
                             9 2.82
  15  0.500  0.500  0.615-  13 2.77  14 2.77  12 2.78  12 2.78  13 2.79  14 2.79  11 2.81  16 2.81
                             9 2.82
  16  0.834  0.332  0.540-  10 2.77  11 2.77   9 2.78   9 2.78  11 2.79  10 2.79   5 2.80   6 2.80
                            14 2.81  15 2.81   8 2.84  12 2.91
  17  0.000  0.000  0.670-  12 1.56
 
  LATTYP: Found a hexagonal cell.
 ALAT       =     5.5578593001
 C/A-ratio  =     5.5429542221
  
  Lattice vectors:
  
 A1 = (   2.7789296501,  -4.8132473446,   0.0000000000)
 A2 = (  -5.5578593001,   0.0000000000,   0.0000000000)
 A3 = (   0.0000000000,   0.0000000000, -30.8069596737)


Analysis of symmetry for initial positions (statically):
=====================================================================
 Subroutine PRICEL returns:
 Original cell was already a primitive cell.
 

 Routine SETGRP: Setting up the symmetry group for a 
 hexagonal supercell.


 Subroutine GETGRP returns: Found  2 space group operations
 (whereof  2 operations were pure point group operations)
 out of a pool of 24 trial point group operations.


The static configuration has the point symmetry C_1h.


Analysis of symmetry for dynamics (positions and initial velocities):
=====================================================================
 Subroutine PRICEL returns:
 Original cell was already a primitive cell.
 

 Routine SETGRP: Setting up the symmetry group for a 
 hexagonal supercell.


 Subroutine GETGRP returns: Found  2 space group operations
 (whereof  2 operations were pure point group operations)
 out of a pool of 24 trial point group operations.


The dynamic configuration has the point symmetry C_1h.


Analysis of constrained symmetry for selective dynamics:
=====================================================================
 Subroutine PRICEL returns:
 Original cell was already a primitive cell.
 

 Routine SETGRP: Setting up the symmetry group for a 
 hexagonal supercell.


 Subroutine GETGRP returns: Found  2 space group operations
 (whereof  2 operations were pure point group operations)
 out of a pool of 24 trial point group operations.


The constrained configuration has the point symmetry C_1h.


 Subroutine INISYM returns: Found  2 space group operations
 (whereof  2 operations are pure point group operations),
 and found     1 'primitive' translations

 
 
 KPOINTS: KPOINTS created by Atomic Simulation Env

Automatic generation of k-mesh.
Space group operators:
 irot       det(A)        alpha          n_x          n_y          n_z        tau_x        tau_y        tau_z
    1     1.000000     0.000001     1.000000     0.000000     0.000000     0.000000     0.000000     0.000000
    2    -1.000000   180.000000     1.000000     0.000000     0.000000     0.000000     0.000000     0.000000
 
 Subroutine IBZKPT returns following result:
 ===========================================
 
 Found     52 irreducible k-points:
 
 Following reciprocal coordinates:
            Coordinates               Weight
  0.062500  0.062500  0.000000     32.000000
  0.000000  0.062500  0.000000     16.000000
  0.187500  0.062500  0.000000     32.000000
  0.125000  0.187500  0.000000     32.000000
 -0.062500  0.125000  0.000000     32.000000
  0.312500  0.062500  0.000000     32.000000
  0.250000  0.312500  0.000000     32.000000
 -0.062500  0.250000  0.000000     32.000000
  0.437500  0.062500  0.000000     32.000000
  0.375000  0.437500  0.000000     32.000000
 -0.062500  0.375000  0.000000     32.000000
 -0.437500  0.062500  0.000000     32.000000
  0.500000 -0.437500  0.000000     32.000000
 -0.062500  0.500000  0.000000     32.000000
 -0.312500  0.062500  0.000000     32.000000
 -0.375000 -0.312500  0.000000     32.000000
 -0.062500 -0.375000  0.000000     32.000000
 -0.187500  0.062500  0.000000     32.000000
 -0.250000 -0.187500  0.000000     32.000000
 -0.062500 -0.250000  0.000000     32.000000
 -0.062500  0.062500  0.000000     32.000000
 -0.125000 -0.062500  0.000000     16.000000
  0.187500  0.187500  0.000000     32.000000
  0.000000  0.187500  0.000000     16.000000
  0.312500  0.187500  0.000000     32.000000
  0.125000  0.312500  0.000000     32.000000
 -0.187500  0.125000  0.000000     32.000000
  0.437500  0.187500  0.000000     32.000000
  0.250000  0.437500  0.000000     32.000000
 -0.187500  0.250000  0.000000     32.000000
 -0.437500  0.187500  0.000000     32.000000
  0.375000 -0.437500  0.000000     32.000000
 -0.187500  0.375000  0.000000     32.000000
 -0.312500  0.187500  0.000000     32.000000
  0.500000 -0.312500  0.000000     32.000000
 -0.187500  0.500000  0.000000     32.000000
 -0.187500  0.187500  0.000000     32.000000
 -0.375000 -0.187500  0.000000     16.000000
  0.312500  0.312500  0.000000     32.000000
  0.000000  0.312500  0.000000     16.000000
  0.437500  0.312500  0.000000     32.000000
  0.125000  0.437500  0.000000     32.000000
 -0.312500  0.125000  0.000000     32.000000
 -0.437500  0.312500  0.000000     32.000000
  0.250000 -0.437500  0.000000     32.000000
 -0.312500  0.250000  0.000000     32.000000
 -0.312500  0.312500  0.000000     32.000000
  0.375000 -0.312500  0.000000     16.000000
  0.437500  0.437500  0.000000     32.000000
  0.000000  0.437500  0.000000     16.000000
 -0.437500  0.437500  0.000000     32.000000
  0.125000 -0.437500  0.000000     16.000000
 
 Following cartesian coordinates:
            Coordinates               Weight
  0.011245  0.006492  0.000000     32.000000
  0.000000  0.012985  0.000000     16.000000
  0.033736 -0.006492  0.000000     32.000000
  0.022491  0.025970  0.000000     32.000000
 -0.011245  0.032462  0.000000     32.000000
  0.056227 -0.019477  0.000000     32.000000
  0.044981  0.038955  0.000000     32.000000
 -0.011245  0.058432  0.000000     32.000000
  0.078717 -0.032462  0.000000     32.000000
  0.067472  0.051940  0.000000     32.000000
 -0.011245  0.084402  0.000000     32.000000
 -0.078717  0.058432  0.000000     32.000000
  0.089963 -0.142835  0.000000     32.000000
 -0.011245  0.110372  0.000000     32.000000
 -0.056227  0.045447  0.000000     32.000000
 -0.067472 -0.025970  0.000000     32.000000
 -0.011245 -0.071417  0.000000     32.000000
 -0.033736  0.032462  0.000000     32.000000
 -0.044981 -0.012985  0.000000     32.000000
 -0.011245 -0.045447  0.000000     32.000000
 -0.011245  0.019477  0.000000     32.000000
 -0.022491  0.000000  0.000000     16.000000
  0.033736  0.019477  0.000000     32.000000
  0.000000  0.038955  0.000000     16.000000
  0.056227  0.006492  0.000000     32.000000
  0.022491  0.051940  0.000000     32.000000
 -0.033736  0.045447  0.000000     32.000000
  0.078717 -0.006492  0.000000     32.000000
  0.044981  0.064925  0.000000     32.000000
 -0.033736  0.071417  0.000000     32.000000
 -0.078717  0.084402  0.000000     32.000000
  0.067472 -0.129850  0.000000     32.000000
 -0.033736  0.097387  0.000000     32.000000
 -0.056227  0.071417  0.000000     32.000000
  0.089963 -0.116865  0.000000     32.000000
 -0.033736  0.123357  0.000000     32.000000
 -0.033736  0.058432  0.000000     32.000000
 -0.067472  0.000000  0.000000     16.000000
  0.056227  0.032462  0.000000     32.000000
  0.000000  0.064925  0.000000     16.000000
  0.078717  0.019477  0.000000     32.000000
  0.022491  0.077910  0.000000     32.000000
 -0.056227  0.058432  0.000000     32.000000
 -0.078717  0.110372  0.000000     32.000000
  0.044981 -0.116865  0.000000     32.000000
 -0.056227  0.084402  0.000000     32.000000
 -0.056227  0.097387  0.000000     32.000000
  0.067472 -0.103880  0.000000     16.000000
  0.078717  0.045447  0.000000     32.000000
  0.000000  0.090895  0.000000     16.000000
 -0.078717  0.136342  0.000000     32.000000
  0.022491 -0.103880  0.000000     16.000000
 


--------------------------------------------------------------------------------------------------------




 Dimension of arrays:
   k-points           NKPTS =     52   k-points in BZ     NKDIM =     52   number of bands    NBANDS=     96
   number of dos      NEDOS =    301   number of ions     NIONS =     17
   non local maximal  LDIM  =      6   non local SUM 2l+1 LMDIM =     18
   total plane-waves  NPLWV = 112896
   max r-space proj   IRMAX =      1   max aug-charges    IRDMAX=  10104
   dimension x,y,z NGX =    28 NGY =   28 NGZ =  144
   dimension x,y,z NGXF=    56 NGYF=   56 NGZF=  288
   support grid    NGXF=    56 NGYF=   56 NGZF=  288
   ions per type =               1  14   1   1
   NGX,Y,Z   is equivalent  to a cutoff of   8.38,  8.38,  7.77 a.u.
   NGXF,Y,Z  is equivalent  to a cutoff of  16.75, 16.75, 15.54 a.u.

 SYSTEM =  unknown system                          
 POSCAR =  Ir Pt Au  H                             

 Startparameter for this run:
   NWRITE =      2    write-flag & timer
   PREC   = normal    normal or accurate (medium, high low for compatibility)
   ISTART =      0    job   : 0-new  1-cont  2-samecut
   ICHARG =      2    charge: 1-file 2-atom 10-const
   ISPIN  =      1    spin polarized calculation?
   LNONCOLLINEAR =      F non collinear calculations
   LSORBIT =      F    spin-orbit coupling
   INIWAV =      1    electr: 0-lowe 1-rand  2-diag
   LASPH  =      F    aspherical Exc in radial PAW
   METAGGA=      F    non-selfconsistent MetaGGA calc.

 Electronic Relaxation 1
   ENCUT  =  350.0 eV  25.72 Ry    5.07 a.u.   8.48  8.48 46.99*2*pi/ulx,y,z
   ENINI  =  350.0     initial cutoff
   ENAUG  =  400.0 eV  augmentation charge cutoff
   NELM   =     60;   NELMIN=  2; NELMDL= -5     # of ELM steps 
   EDIFF  = 0.1E-04   stopping-criterion for ELM
   LREAL  =      F    real-space projection
   NLSPLINE    = F    spline interpolate recip. space projectors
   LCOMPAT=      F    compatible to vasp.4.4
   GGA_COMPAT  = T    GGA compatible to vasp.4.4-vasp.4.6
   LMAXPAW     = -100 max onsite density
   LMAXMIX     =    2 max onsite mixed and CHGCAR
   VOSKOWN=      0    Vosko Wilk Nusair interpolation
   ROPT   =    0.00000   0.00000   0.00000   0.00000
 Ionic relaxation
   EDIFFG = -.5E-01   stopping-criterion for IOM
   NSW    =      0    number of steps for IOM
   NBLOCK =      1;   KBLOCK =      1    inner block; outer block 
   IBRION =     -1    ionic relax: 0-MD 1-quasi-New 2-CG
   NFREE  =      1    steps in history (QN), initial steepest desc. (CG)
   ISIF   =      2    stress and relaxation
   IWAVPR =     10    prediction:  0-non 1-charg 2-wave 3-comb
   ISYM   =      2    0-nonsym 1-usesym 2-fastsym
   LCORR  =      T    Harris-Foulkes like correction to forces

   POTIM  = 0.5000    time-step for ionic-motion
   TEIN   =    0.0    initial temperature
   TEBEG  =    0.0;   TEEND  =   0.0 temperature during run
   SMASS  =  -3.00    Nose mass-parameter (am)
   estimated Nose-frequenzy (Omega)   =  0.10E-29 period in steps =****** mass=  -0.706E-27a.u.
   SCALEE = 1.0000    scale energy and forces
   NPACO  =    256;   APACO  = 16.0  distance and # of slots for P.C.
   PSTRESS=    0.0 pullay stress

  Mass of Ions in am
   POMASS = 192.22195.08196.97  1.00
  Ionic Valenz
   ZVAL   =   9.00 10.00 11.00  1.00
  Atomic Wigner-Seitz radii
   RWIGS  =  -1.00 -1.00 -1.00 -1.00
  virtual crystal weights 
   VCA    =   1.00  1.00  1.00  1.00
   NELECT =     161.0000    total number of electrons
   NUPDOWN=      -1.0000    fix difference up-down

 DOS related values:
   EMIN   =  10.00;   EMAX   =-10.00  energy-range for DOS
   EFERMI =   0.00
   ISMEAR =     1;   SIGMA  =   0.20  broadening in eV -4-tet -1-fermi 0-gaus

 Electronic relaxation 2 (details)
   IALGO  =     38    algorithm
   LDIAG  =      T    sub-space diagonalisation (order eigenvalues)
   LSUBROT=      F    optimize rotation matrix (better conditioning)
   TURBO    =      0    0=normal 1=particle mesh
   IRESTART =      0    0=no restart 2=restart with 2 vectors
   NREBOOT  =      0    no. of reboots
   NMIN     =      0    reboot dimension
   EREF     =   0.00    reference energy to select bands
   IMIX   =      4    mixing-type and parameters
     AMIX     =   0.40;   BMIX     =  1.00
     AMIX_MAG =   1.60;   BMIX_MAG =  1.00
     AMIN     =   0.10
     WC   =   100.;   INIMIX=   1;  MIXPRE=   1;  MAXMIX= -45

 Intra band minimization:
   WEIMIN = 0.0000     energy-eigenvalue tresh-hold
   EBREAK =  0.26E-07  absolut break condition
   DEPER  =   0.30     relativ break condition  

   TIME   =   0.40     timestep for ELM

  volume/ion in A,a.u.               =      48.48       327.15
  Fermi-wavevector in a.u.,A,eV,Ry     =   0.949916  1.795081 12.277090  0.902341
  Thomas-Fermi vector in A             =   2.078244
 
 Write flags
   LWAVE        =      F    write WAVECAR
   LDOWNSAMPLE  =      F    k-point downsampling of WAVECAR
   LCHARG       =      F    write CHGCAR
   LVTOT        =      F    write LOCPOT, total local potential
   LVHAR        =      F    write LOCPOT, Hartree potential only
   LELF         =      F    write electronic localiz. function (ELF)
   LORBIT       =      0    0 simple, 1 ext, 2 COOP (PROOUT), +10 PAW based schemes


 Dipole corrections
   LMONO  =      F    monopole corrections only (constant potential shift)
   LDIPOL =      F    correct potential (dipole corrections)
   IDIPOL =      3    1-x, 2-y, 3-z, 4-all directions 
   EPSILON=  1.0000000 bulk dielectric constant

 Exchange correlation treatment:
   GGA     =    PE    GGA type
   LEXCH   =     8    internal setting for exchange type
   VOSKOWN=      0    Vosko Wilk Nusair interpolation
   LHFCALC =     F    Hartree Fock is set to
   LHFONE  =     F    Hartree Fock one center treatment
   AEXX    =    0.0000 exact exchange contribution

 Linear response parameters
   LEPSILON=     F    determine dielectric tensor
   LRPA    =     F    only Hartree local field effects (RPA)
   LNABLA  =     F    use nabla operator in PAW spheres
   LVEL    =     F    velocity operator in full k-point grid
   LINTERFAST=   F  fast interpolation
   KINTER  =     0    interpolate to denser k-point grid
   CSHIFT  =0.1000    complex shift for real part using Kramers Kronig
   OMEGAMAX=  -1.0    maximum frequency
   DEG_THRESHOLD= 0.2000000E-02 threshold for treating states as degnerate
   RTIME   =   -0.100 relaxation time in fs
  (WPLASMAI=    0.000 imaginary part of plasma frequency in eV, 0.658/RTIME)
   DFIELD  = 0.0000000 0.0000000 0.0000000 field for delta impulse in time
 
 Orbital magnetization related:
   ORBITALMAG=     F  switch on orbital magnetization
   LCHIMAG   =     F  perturbation theory with respect to B field
   DQ        =  0.001000  dq finite difference perturbation B field
   LLRAUG    =     F  two centre corrections for induced B field



--------------------------------------------------------------------------------------------------------


 Static calculation
 charge density and potential will be updated during run
 non-spin polarized calculation
 Variant of blocked Davidson
 Davidson routine will perform the subspace rotation
 perform sub-space diagonalisation
    after iterative eigenvector-optimisation
 modified Broyden-mixing scheme, WC =      100.0
 initial mixing is a Kerker type mixing with AMIX =  0.4000 and BMIX =      1.0000
 Hartree-type preconditioning will be used
 using additional bands           15
 reciprocal scheme for non local part
 use partial core corrections
 calculate Harris-corrections to forces 
   (improved forces if not selfconsistent)
 use gradient corrections 
 use of overlap-Matrix (Vanderbilt PP)
 Methfessel and Paxton  Order N= 1 SIGMA  =   0.20


--------------------------------------------------------------------------------------------------------


  energy-cutoff  :      350.00
  volume of cell :      824.13
      direct lattice vectors                 reciprocal lattice vectors
     5.557859300  0.000000000  0.000000000     0.179925390 -0.103879972  0.000000000
     2.778929650  4.813247345  0.000000000     0.000000000  0.207759944  0.000000000
     0.000000000  0.000000000 30.806959674     0.000000000  0.000000000  0.032460198

  length of vectors
     5.557859300  5.557859300 30.806959674     0.207759944  0.207759944  0.032460198


 
 k-points in units of 2pi/SCALE and weight: KPOINTS created by Atomic Simulation Env
   0.01124534  0.00649250  0.00000000       0.021
   0.00000000  0.01298500  0.00000000       0.010
   0.03373601 -0.00649250  0.00000000       0.021
   0.02249067  0.02596999  0.00000000       0.021
  -0.01124534  0.03246249  0.00000000       0.021
   0.05622668 -0.01947749  0.00000000       0.021
   0.04498135  0.03895499  0.00000000       0.021
  -0.01124534  0.05843248  0.00000000       0.021
   0.07871736 -0.03246249  0.00000000       0.021
   0.06747202  0.05193999  0.00000000       0.021
  -0.01124534  0.08440248  0.00000000       0.021
  -0.07871736  0.05843248  0.00000000       0.021
   0.08996269 -0.14283496  0.00000000       0.021
  -0.01124534  0.11037247  0.00000000       0.021
  -0.05622668  0.04544749  0.00000000       0.021
  -0.06747202 -0.02596999  0.00000000       0.021
  -0.01124534 -0.07141748  0.00000000       0.021
  -0.03373601  0.03246249  0.00000000       0.021
  -0.04498135 -0.01298500  0.00000000       0.021
  -0.01124534 -0.04544749  0.00000000       0.021
  -0.01124534  0.01947749  0.00000000       0.021
  -0.02249067  0.00000000  0.00000000       0.010
   0.03373601  0.01947749  0.00000000       0.021
   0.00000000  0.03895499  0.00000000       0.010
   0.05622668  0.00649250  0.00000000       0.021
   0.02249067  0.05193999  0.00000000       0.021
  -0.03373601  0.04544749  0.00000000       0.021
   0.07871736 -0.00649250  0.00000000       0.021
   0.04498135  0.06492498  0.00000000       0.021
  -0.03373601  0.07141748  0.00000000       0.021
  -0.07871736  0.08440248  0.00000000       0.021
   0.06747202 -0.12984997  0.00000000       0.021
  -0.03373601  0.09738747  0.00000000       0.021
  -0.05622668  0.07141748  0.00000000       0.021
   0.08996269 -0.11686497  0.00000000       0.021
  -0.03373601  0.12335747  0.00000000       0.021
  -0.03373601  0.05843248  0.00000000       0.021
  -0.06747202  0.00000000  0.00000000       0.010
   0.05622668  0.03246249  0.00000000       0.021
   0.00000000  0.06492498  0.00000000       0.010
   0.07871736  0.01947749  0.00000000       0.021
   0.02249067  0.07790998  0.00000000       0.021
  -0.05622668  0.05843248  0.00000000       0.021
  -0.07871736  0.11037247  0.00000000       0.021
   0.04498135 -0.11686497  0.00000000       0.021
  -0.05622668  0.08440248  0.00000000       0.021
  -0.05622668  0.09738747  0.00000000       0.021
   0.06747202 -0.10387997  0.00000000       0.010
   0.07871736  0.04544749  0.00000000       0.021
   0.00000000  0.09089498  0.00000000       0.010
  -0.07871736  0.13634246  0.00000000       0.021
   0.02249067 -0.10387997  0.00000000       0.010
 
 k-points in reciprocal lattice and weights: KPOINTS created by Atomic Simulation Env
   0.06250000  0.06250000  0.00000000       0.021
   0.00000000  0.06250000  0.00000000       0.010
   0.18750000  0.06250000  0.00000000       0.021
   0.12500000  0.18750000  0.00000000       0.021
  -0.06250000  0.12500000  0.00000000       0.021
   0.31250000  0.06250000  0.00000000       0.021
   0.25000000  0.31250000  0.00000000       0.021
  -0.06250000  0.25000000  0.00000000       0.021
   0.43750000  0.06250000  0.00000000       0.021
   0.37500000  0.43750000  0.00000000       0.021
  -0.06250000  0.37500000  0.00000000       0.021
  -0.43750000  0.06250000  0.00000000       0.021
   0.50000000 -0.43750000  0.00000000       0.021
  -0.06250000  0.50000000  0.00000000       0.021
  -0.31250000  0.06250000  0.00000000       0.021
  -0.37500000 -0.31250000  0.00000000       0.021
  -0.06250000 -0.37500000  0.00000000       0.021
  -0.18750000  0.06250000  0.00000000       0.021
  -0.25000000 -0.18750000  0.00000000       0.021
  -0.06250000 -0.25000000  0.00000000       0.021
  -0.06250000  0.06250000  0.00000000       0.021
  -0.12500000 -0.06250000  0.00000000       0.010
   0.18750000  0.18750000  0.00000000       0.021
   0.00000000  0.18750000  0.00000000       0.010
   0.31250000  0.18750000  0.00000000       0.021
   0.12500000  0.31250000  0.00000000       0.021
  -0.18750000  0.12500000  0.00000000       0.021
   0.43750000  0.18750000  0.00000000       0.021
   0.25000000  0.43750000  0.00000000       0.021
  -0.18750000  0.25000000  0.00000000       0.021
  -0.43750000  0.18750000  0.00000000       0.021
   0.37500000 -0.43750000  0.00000000       0.021
  -0.18750000  0.37500000  0.00000000       0.021
  -0.31250000  0.18750000  0.00000000       0.021
   0.50000000 -0.31250000  0.00000000       0.021
  -0.18750000  0.50000000  0.00000000       0.021
  -0.18750000  0.18750000  0.00000000       0.021
  -0.37500000 -0.18750000  0.00000000       0.010
   0.31250000  0.31250000  0.00000000       0.021
   0.00000000  0.31250000  0.00000000       0.010
   0.43750000  0.31250000  0.00000000       0.021
   0.12500000  0.43750000  0.00000000       0.021
  -0.31250000  0.12500000  0.00000000       0.021
  -0.43750000  0.31250000  0.00000000       0.021
   0.25000000 -0.43750000  0.00000000       0.021
  -0.31250000  0.25000000  0.00000000       0.021
  -0.31250000  0.31250000  0.00000000       0.021
   0.37500000 -0.31250000  0.00000000       0.010
   0.43750000  0.43750000  0.00000000       0.021
   0.00000000  0.43750000  0.00000000       0.010
  -0.43750000  0.43750000  0.00000000       0.021
   0.12500000 -0.43750000  0.00000000       0.010
 
 position of ions in fractional coordinates (direct lattice) 
   0.00000000  0.00000000  0.38952237
   0.50000000  0.00000000  0.38952237
   0.00000000  0.50000000  0.38952237
   0.50000000  0.50000000  0.38952237
   0.16652883  0.16652883  0.46542487
   0.66694234  0.16652883  0.46542487
   0.16652883  0.66694234  0.46542487
   0.66666667  0.66666667  0.46426737
   0.33333333  0.33333333  0.53994492
   0.83396869  0.83396869  0.54005199
   0.33206261  0.83396869  0.54005199
   0.00000000  0.00000000  0.61904352
   0.50048728  0.99902544  0.61498914
   0.99902544  0.50048728  0.61498914
   0.50048728  0.50048728  0.61498914
   0.83396869  0.33206261  0.54005199
   0.00000000  0.00000000  0.66953436
 
 position of ions in cartesian coordinates  (Angst):
   0.00000000  0.00000000 12.00000000
   2.77892965  0.00000000 12.00000000
   1.38946483  2.40662367 12.00000000
   4.16839448  2.40662367 12.00000000
   1.38831573  0.80154446 14.33832516
   4.16954357  0.80154446 14.33832516
   2.77892965  3.21015843 14.33832516
   5.55785930  3.20883156 14.30266626
   2.77892965  1.60441578 16.63406129
   6.95262100  4.01409760 16.63736001
   4.16309760  4.01409760 16.63736001
   0.00000000  0.00000000 19.07084875
   5.55785930  4.80855657 18.94594552
   6.94326179  2.40896906 18.94594552
   4.17245681  2.40896906 18.94594552
   5.55785930  1.59829948 16.63736001
   0.00000000  0.00000000 20.62631794
 


--------------------------------------------------------------------------------------------------------


 k-point  1 :   0.0625 0.0625 0.0000  plane waves:   12325
 k-point  2 :   0.0000 0.0625 0.0000  plane waves:   12325
 k-point  3 :   0.1875 0.0625 0.0000  plane waves:   12294
 k-point  4 :   0.1250 0.1875 0.0000  plane waves:   12294
 k-point  5 :  -0.0625 0.1250 0.0000  plane waves:   12294
 k-point  6 :   0.3125 0.0625 0.0000  plane waves:   12263
 k-point  7 :   0.2500 0.3125 0.0000  plane waves:   12263
 k-point  8 :  -0.0625 0.2500 0.0000  plane waves:   12263
 k-point  9 :   0.4375 0.0625 0.0000  plane waves:   12221
 k-point 10 :   0.3750 0.4375 0.0000  plane waves:   12221
 k-point 11 :  -0.0625 0.3750 0.0000  plane waves:   12221
 k-point 12 :  -0.4375 0.0625 0.0000  plane waves:   12211
 k-point 13 :   0.5000-0.4375 0.0000  plane waves:   12211
 k-point 14 :  -0.0625 0.5000 0.0000  plane waves:   12211
 k-point 15 :  -0.3125 0.0625 0.0000  plane waves:   12242
 k-point 16 :  -0.3750-0.3125 0.0000  plane waves:   12242
 k-point 17 :  -0.0625-0.3750 0.0000  plane waves:   12242
 k-point 18 :  -0.1875 0.0625 0.0000  plane waves:   12280
 k-point 19 :  -0.2500-0.1875 0.0000  plane waves:   12280
 k-point 20 :  -0.0625-0.2500 0.0000  plane waves:   12280
 k-point 21 :  -0.0625 0.0625 0.0000  plane waves:   12329
 k-point 22 :  -0.1250-0.0625 0.0000  plane waves:   12329
 k-point 23 :   0.1875 0.1875 0.0000  plane waves:   12277
 k-point 24 :   0.0000 0.1875 0.0000  plane waves:   12277
 k-point 25 :   0.3125 0.1875 0.0000  plane waves:   12288
 k-point 26 :   0.1250 0.3125 0.0000  plane waves:   12288
 k-point 27 :  -0.1875 0.1250 0.0000  plane waves:   12288
 k-point 28 :   0.4375 0.1875 0.0000  plane waves:   12234
 k-point 29 :   0.2500 0.4375 0.0000  plane waves:   12234
 k-point 30 :  -0.1875 0.2500 0.0000  plane waves:   12234
 k-point 31 :  -0.4375 0.1875 0.0000  plane waves:   12216
 k-point 32 :   0.3750-0.4375 0.0000  plane waves:   12216
 k-point 33 :  -0.1875 0.3750 0.0000  plane waves:   12216
 k-point 34 :  -0.3125 0.1875 0.0000  plane waves:   12215
 k-point 35 :   0.5000-0.3125 0.0000  plane waves:   12215
 k-point 36 :  -0.1875 0.5000 0.0000  plane waves:   12215
 k-point 37 :  -0.1875 0.1875 0.0000  plane waves:   12289
 k-point 38 :  -0.3750-0.1875 0.0000  plane waves:   12289
 k-point 39 :   0.3125 0.3125 0.0000  plane waves:   12275
 k-point 40 :   0.0000 0.3125 0.0000  plane waves:   12275
 k-point 41 :   0.4375 0.3125 0.0000  plane waves:   12239
 k-point 42 :   0.1250 0.4375 0.0000  plane waves:   12239
 k-point 43 :  -0.3125 0.1250 0.0000  plane waves:   12239
 k-point 44 :  -0.4375 0.3125 0.0000  plane waves:   12235
 k-point 45 :   0.2500-0.4375 0.0000  plane waves:   12235
 k-point 46 :  -0.3125 0.2500 0.0000  plane waves:   12235
 k-point 47 :  -0.3125 0.3125 0.0000  plane waves:   12232
 k-point 48 :   0.3750-0.3125 0.0000  plane waves:   12232
 k-point 49 :   0.4375 0.4375 0.0000  plane waves:   12200
 k-point 50 :   0.0000 0.4375 0.0000  plane waves:   12200
 k-point 51 :  -0.4375 0.4375 0.0000  plane waves:   12214
 k-point 52 :   0.1250-0.4375 0.0000  plane waves:   12214

 maximum and minimum number of plane-waves per node :     12329    12200

 maximum number of plane-waves:     12329
 maximum index in each direction: 
   IXMAX=    8   IYMAX=    8   IZMAX=   46
   IXMIN=   -8   IYMIN=   -8   IZMIN=  -46


 serial   3D FFT for wavefunctions
 parallel 3D FFT for charge:
    minimum data exchange during FFTs selected (reduces bandwidth)


 total amount of memory used by VASP MPI-rank0   455244. kBytes
=======================================================================

   base      :      30000. kBytes
   nonl-proj :     372843. kBytes
   fftplans  :       2015. kBytes
   grid      :       8030. kBytes
   one-center:        264. kBytes
   wavefun   :      42092. kBytes
 
     INWAV:  cpu time    0.0000: real time    0.0000
 Broyden mixing: mesh for mixing (old mesh)
   NGX = 17   NGY = 17   NGZ = 93
  (NGX  = 56   NGY  = 56   NGZ  =288)
  gives a total of  26877 points

 initial charge density was supplied:
 charge density of overlapping atoms calculated
 number of electron     161.0000000 magnetization 
 keeping initial charge density in first step


--------------------------------------------------------------------------------------------------------


 Maximum index for augmentation-charges          824 (set IRDMAX)


--------------------------------------------------------------------------------------------------------


 First call to EWALD:  gamma=   0.189
 Maximum number of real-space cells 5x 5x 1
 Maximum number of reciprocal cells 2x 2x 8

    FEWALD:  cpu time    0.0013: real time    0.0013


--------------------------------------- Iteration      1(   1)  ---------------------------------------


    POTLOK:  cpu time    0.0223: real time    0.0288
    SETDIJ:  cpu time    0.0025: real time    0.0025
     EDDAV:  cpu time   11.6668: real time   11.6693
       DOS:  cpu time    0.0020: real time    0.0020
    --------------------------------------------
      LOOP:  cpu time   11.6936: real time   11.7026

 eigenvalue-minimisations  :  9984
 total energy-change (2. order) : 0.9797431E+03  (-0.5574120E+04)
 number of electron     161.0000000 magnetization 
 augmentation part      161.0000000 magnetization 

 Free energy of the ion-electron system (eV)
  ---------------------------------------------------
  alpha Z        PSCENC =       305.89839443
  Ewald energy   TEWEN  =     99026.97233169
  -Hartree energ DENC   =   -111114.70690801
  -exchange      EXHF   =         0.00000000
  -V(xc)+E(xc)   XCENC  =        48.74461062
  PAW double counting   =     11173.35063782   -10713.98924482
  entropy T*S    EENTRO =         0.00367498
  eigenvalues    EBANDS =       547.30724460
  atomic energy  EATOM  =     11706.16234457
  Solvation  Ediel_sol  =         0.00000000
  ---------------------------------------------------
  free energy    TOTEN  =       979.74308587 eV

  energy without entropy =      979.73941089  energy(sigma->0) =      979.74186088


--------------------------------------------------------------------------------------------------------




--------------------------------------- Iteration      1(   2)  ---------------------------------------


     EDDAV:  cpu time   15.8190: real time   15.8266
       DOS:  cpu time    0.0015: real time    0.0015
    --------------------------------------------
      LOOP:  cpu time   15.8205: real time   15.8281

 eigenvalue-minimisations  : 14424
 total energy-change (2. order) :-0.1021390E+04  (-0.9903184E+03)
 number of electron     161.0000000 magnetization 
 augmentation part      161.0000000 magnetization 

 Free energy of the ion-electron system (eV)
  ---------------------------------------------------
  alpha Z        PSCENC =       305.89839443
  Ewald energy   TEWEN  =     99026.97233169
  -Hartree energ DENC   =   -111114.70690801
  -exchange      EXHF   =         0.00000000
  -V(xc)+E(xc)   XCENC  =        48.74461062
  PAW double counting   =     11173.35063782   -10713.98924482
  entropy T*S    EENTRO =        -0.00739143
  eigenvalues    EBANDS =      -474.07176834
  atomic energy  EATOM  =     11706.16234457
  Solvation  Ediel_sol  =         0.00000000
  ---------------------------------------------------
  free energy    TOTEN  =       -41.64699348 eV

  energy without entropy =      -41.63960205  energy(sigma->0) =      -41.64452967


--------------------------------------------------------------------------------------------------------




--------------------------------------- Iteration      1(   3)  ---------------------------------------


     EDDAV:  cpu time   14.0503: real time   14.0514
       DOS:  cpu time    0.0015: real time    0.0015
    --------------------------------------------
      LOOP:  cpu time   14.0518: real time   14.0529

 eigenvalue-minimisations  : 12504
 total energy-change (2. order) :-0.5927433E+02  (-0.5751418E+02)
 number of electron     161.0000000 magnetization 
 augmentation part      161.0000000 magnetization 

 Free energy of the ion-electron system (eV)
  ---------------------------------------------------
  alpha Z        PSCENC =       305.89839443
  Ewald energy   TEWEN  =     99026.97233169
  -Hartree energ DENC   =   -111114.70690801
  -exchange      EXHF   =         0.00000000
  -V(xc)+E(xc)   XCENC  =        48.74461062
  PAW double counting   =     11173.35063782   -10713.98924482
  entropy T*S    EENTRO =        -0.01252591
  eigenvalues    EBANDS =      -533.34096607
  atomic energy  EATOM  =     11706.16234457
  Solvation  Ediel_sol  =         0.00000000
  ---------------------------------------------------
  free energy    TOTEN  =      -100.92132569 eV

  energy without entropy =     -100.90879978  energy(sigma->0) =     -100.91715038


--------------------------------------------------------------------------------------------------------




--------------------------------------- Iteration      1(   4)  ---------------------------------------


     EDDAV:  cpu time   15.6348: real time   15.6368
       DOS:  cpu time    0.0016: real time    0.0016
    --------------------------------------------
      LOOP:  cpu time   15.6365: real time   15.6384

 eigenvalue-minimisations  : 14232
 total energy-change (2. order) :-0.1302244E+01  (-0.1294818E+01)
 number of electron     161.0000000 magnetization 
 augmentation part      161.0000000 magnetization 

 Free energy of the ion-electron system (eV)
  ---------------------------------------------------
  alpha Z        PSCENC =       305.89839443
  Ewald energy   TEWEN  =     99026.97233169
  -Hartree energ DENC   =   -111114.70690801
  -exchange      EXHF   =         0.00000000
  -V(xc)+E(xc)   XCENC  =        48.74461062
  PAW double counting   =     11173.35063782   -10713.98924482
  entropy T*S    EENTRO =        -0.01220110
  eigenvalues    EBANDS =      -534.64353509
  atomic energy  EATOM  =     11706.16234457
  Solvation  Ediel_sol  =         0.00000000
  ---------------------------------------------------
  free energy    TOTEN  =      -102.22356991 eV

  energy without entropy =     -102.21136880  energy(sigma->0) =     -102.21950287


--------------------------------------------------------------------------------------------------------




--------------------------------------- Iteration      1(   5)  ---------------------------------------


     EDDAV:  cpu time   16.5632: real time   16.5730
       DOS:  cpu time    0.0015: real time    0.0015
    CHARGE:  cpu time    0.3465: real time    0.3465
    MIXING:  cpu time    0.0011: real time    0.0011
    --------------------------------------------
      LOOP:  cpu time   16.9122: real time   16.9221

 eigenvalue-minimisations  : 15192
 total energy-change (2. order) :-0.3370621E-01  (-0.3369570E-01)
 number of electron     161.0000040 magnetization 
 augmentation part       46.8886288 magnetization 

 Broyden mixing:
  rms(total) = 0.41855E+01    rms(broyden)= 0.41853E+01
  rms(prec ) = 0.42190E+01
  weight for this iteration     100.00

 Free energy of the ion-electron system (eV)
  ---------------------------------------------------
  alpha Z        PSCENC =       305.89839443
  Ewald energy   TEWEN  =     99026.97233169
  -Hartree energ DENC   =   -111114.70690801
  -exchange      EXHF   =         0.00000000
  -V(xc)+E(xc)   XCENC  =        48.74461062
  PAW double counting   =     11173.35063782   -10713.98924482
  entropy T*S    EENTRO =        -0.01215113
  eigenvalues    EBANDS =      -534.67729127
  atomic energy  EATOM  =     11706.16234457
  Solvation  Ediel_sol  =         0.00000000
  ---------------------------------------------------
  free energy    TOTEN  =      -102.25727611 eV

  energy without entropy =     -102.24512498  energy(sigma->0) =     -102.25322574


--------------------------------------------------------------------------------------------------------




--------------------------------------- Iteration      1(   6)  ---------------------------------------


    POTLOK:  cpu time    0.0186: real time    0.0202
    SETDIJ:  cpu time    0.0023: real time    0.0023
     EDDAV:  cpu time   13.8491: real time   13.8622
       DOS:  cpu time    0.0017: real time    0.0017
    CHARGE:  cpu time    0.3439: real time    0.3440
    MIXING:  cpu time    0.0011: real time    0.0011
    --------------------------------------------
      LOOP:  cpu time   14.2167: real time   14.2315

 eigenvalue-minimisations  : 12264
 total energy-change (2. order) : 0.4199492E+01  (-0.3449585E+01)
 number of electron     161.0000033 magnetization 
 augmentation part       49.5582198 magnetization 

 Broyden mixing:
  rms(total) = 0.30892E+01    rms(broyden)= 0.30891E+01
  rms(prec ) = 0.31803E+01
  weight for this iteration     100.00

 eigenvalues of (default mixing * dielectric matrix)
  average eigenvalue GAMMA=   1.2405
  1.2405

 Free energy of the ion-electron system (eV)
  ---------------------------------------------------
  alpha Z        PSCENC =       305.89839443
  Ewald energy   TEWEN  =     99026.97233169
  -Hartree energ DENC   =   -110901.59101212
  -exchange      EXHF   =         0.00000000
  -V(xc)+E(xc)   XCENC  =        44.65536434
  PAW double counting   =     12331.42908975   -11895.64581386
  entropy T*S    EENTRO =        -0.01811471
  eigenvalues    EBANDS =      -715.92036818
  atomic energy  EATOM  =     11706.16234457
  Solvation  Ediel_sol  =         0.00000000
  ---------------------------------------------------
  free energy    TOTEN  =       -98.05778409 eV

  energy without entropy =      -98.03966938  energy(sigma->0) =      -98.05174585


--------------------------------------------------------------------------------------------------------




--------------------------------------- Iteration      1(   7)  ---------------------------------------


    POTLOK:  cpu time    0.0181: real time    0.0187
    SETDIJ:  cpu time    0.0023: real time    0.0023
     EDDAV:  cpu time   14.7073: real time   14.8111
       DOS:  cpu time    0.0017: real time    0.0017
    CHARGE:  cpu time    0.3433: real time    0.3433
    MIXING:  cpu time    0.0008: real time    0.0008
    --------------------------------------------
      LOOP:  cpu time   15.0736: real time   15.1780

 eigenvalue-minimisations  : 13224
 total energy-change (2. order) :-0.2223653E+02  (-0.1780955E+02)
 number of electron     161.0000049 magnetization 
 augmentation part       48.9592001 magnetization 

 Broyden mixing:
  rms(total) = 0.43676E+01    rms(broyden)= 0.43675E+01
  rms(prec ) = 0.48959E+01
  weight for this iteration     100.00

 eigenvalues of (default mixing * dielectric matrix)
  average eigenvalue GAMMA=   1.1669
  2.0703  0.2635

 Free energy of the ion-electron system (eV)
  ---------------------------------------------------
  alpha Z        PSCENC =       305.89839443
  Ewald energy   TEWEN  =     99026.97233169
  -Hartree energ DENC   =   -111069.42572719
  -exchange      EXHF   =         0.00000000
  -V(xc)+E(xc)   XCENC  =        43.62825315
  PAW double counting   =     13217.59613761   -12791.87160533
  entropy T*S    EENTRO =         0.00909611
  eigenvalues    EBANDS =      -559.26353520
  atomic energy  EATOM  =     11706.16234457
  Solvation  Ediel_sol  =         0.00000000
  ---------------------------------------------------
  free energy    TOTEN  =      -120.29431015 eV

  energy without entropy =     -120.30340626  energy(sigma->0) =     -120.29734219


--------------------------------------------------------------------------------------------------------




--------------------------------------- Iteration      1(   8)  ---------------------------------------


    POTLOK:  cpu time    0.0176: real time    0.0178
    SETDIJ:  cpu time    0.0024: real time    0.0024
     EDDAV:  cpu time   15.5822: real time   15.5827
       DOS:  cpu time    0.0015: real time    0.0015
    CHARGE:  cpu time    0.3440: real time    0.3440
    MIXING:  cpu time    0.0009: real time    0.0009
    --------------------------------------------
      LOOP:  cpu time   15.9485: real time   15.9492

 eigenvalue-minimisations  : 14184
 total energy-change (2. order) : 0.1980678E+02  (-0.1183363E+02)
 number of electron     161.0000059 magnetization 
 augmentation part       50.4476691 magnetization 

 Broyden mixing:
  rms(total) = 0.21478E+01    rms(broyden)= 0.21477E+01
  rms(prec ) = 0.25008E+01
  weight for this iteration     100.00

 eigenvalues of (default mixing * dielectric matrix)
  average eigenvalue GAMMA=   0.9387
  2.1452  0.3668  0.3040

 Free energy of the ion-electron system (eV)
  ---------------------------------------------------
  alpha Z        PSCENC =       305.89839443
  Ewald energy   TEWEN  =     99026.97233169
  -Hartree energ DENC   =   -110917.59447315
  -exchange      EXHF   =         0.00000000
  -V(xc)+E(xc)   XCENC  =        42.71272316
  PAW double counting   =     14110.21187442   -13695.66796985
  entropy T*S    EENTRO =        -0.00103635
  eigenvalues    EBANDS =      -679.18171666
  atomic energy  EATOM  =     11706.16234457
  Solvation  Ediel_sol  =         0.00000000
  ---------------------------------------------------
  free energy    TOTEN  =      -100.48752774 eV

  energy without entropy =     -100.48649139  energy(sigma->0) =     -100.48718229


--------------------------------------------------------------------------------------------------------




--------------------------------------- Iteration      1(   9)  ---------------------------------------


    POTLOK:  cpu time    0.0191: real time    0.0259
    SETDIJ:  cpu time    0.0023: real time    0.0023
     EDDAV:  cpu time   15.1668: real time   15.1687
       DOS:  cpu time    0.0016: real time    0.0016
    CHARGE:  cpu time    0.3442: real time    0.3442
    MIXING:  cpu time    0.0011: real time    0.0010
    --------------------------------------------
      LOOP:  cpu time   15.5352: real time   15.5438

 eigenvalue-minimisations  : 13728
 total energy-change (2. order) :-0.5870604E+01  (-0.1416966E+02)
 number of electron     161.0000035 magnetization 
 augmentation part       50.1610253 magnetization 

 Broyden mixing:
  rms(total) = 0.27128E+01    rms(broyden)= 0.27127E+01
  rms(prec ) = 0.36186E+01
  weight for this iteration     100.00

 eigenvalues of (default mixing * dielectric matrix)
  average eigenvalue GAMMA=   0.8431
  2.2558  0.6836  0.2787  0.1542

 Free energy of the ion-electron system (eV)
  ---------------------------------------------------
  alpha Z        PSCENC =       305.89839443
  Ewald energy   TEWEN  =     99026.97233169
  -Hartree energ DENC   =   -110887.56159510
  -exchange      EXHF   =         0.00000000
  -V(xc)+E(xc)   XCENC  =        42.80945658
  PAW double counting   =     14266.63768717   -13852.77891576
  entropy T*S    EENTRO =        -0.00610112
  eigenvalues    EBANDS =      -714.49173445
  atomic energy  EATOM  =     11706.16234457
  Solvation  Ediel_sol  =         0.00000000
  ---------------------------------------------------
  free energy    TOTEN  =      -106.35813198 eV

  energy without entropy =     -106.35203086  energy(sigma->0) =     -106.35609827


--------------------------------------------------------------------------------------------------------




--------------------------------------- Iteration      1(  10)  ---------------------------------------


    POTLOK:  cpu time    0.0193: real time    0.0197
    SETDIJ:  cpu time    0.0024: real time    0.0024
     EDDAV:  cpu time   16.0128: real time   16.0147
       DOS:  cpu time    0.0016: real time    0.0016
    CHARGE:  cpu time    0.3425: real time    0.3425
    MIXING:  cpu time    0.0011: real time    0.0011
    --------------------------------------------
      LOOP:  cpu time   16.3797: real time   16.3819

 eigenvalue-minimisations  : 14664
 total energy-change (2. order) : 0.5475822E+01  (-0.1033136E+02)
 number of electron     161.0000027 magnetization 
 augmentation part       50.4339023 magnetization 

 Broyden mixing:
  rms(total) = 0.22415E+01    rms(broyden)= 0.22414E+01
  rms(prec ) = 0.27387E+01
  weight for this iteration     100.00

 eigenvalues of (default mixing * dielectric matrix)
  average eigenvalue GAMMA=   0.7719
  2.3147  0.9221  0.2525  0.2525  0.1174

 Free energy of the ion-electron system (eV)
  ---------------------------------------------------
  alpha Z        PSCENC =       305.89839443
  Ewald energy   TEWEN  =     99026.97233169
  -Hartree energ DENC   =   -110915.52495946
  -exchange      EXHF   =         0.00000000
  -V(xc)+E(xc)   XCENC  =        43.00006851
  PAW double counting   =     14426.07371453   -14012.63460548
  entropy T*S    EENTRO =        -0.01894837
  eigenvalues    EBANDS =      -680.81065023
  atomic energy  EATOM  =     11706.16234457
  Solvation  Ediel_sol  =         0.00000000
  ---------------------------------------------------
  free energy    TOTEN  =      -100.88230982 eV

  energy without entropy =     -100.86336145  energy(sigma->0) =     -100.87599370


--------------------------------------------------------------------------------------------------------




--------------------------------------- Iteration      1(  11)  ---------------------------------------


    POTLOK:  cpu time    0.0183: real time    0.0185
    SETDIJ:  cpu time    0.0023: real time    0.0023
     EDDAV:  cpu time   16.9781: real time   16.9787
       DOS:  cpu time    0.0016: real time    0.0016
    CHARGE:  cpu time    0.3442: real time    0.3442
    MIXING:  cpu time    0.0010: real time    0.0010
    --------------------------------------------
      LOOP:  cpu time   17.3455: real time   17.3463

 eigenvalue-minimisations  : 15720
 total energy-change (2. order) : 0.3878110E+01  (-0.4239605E+01)
 number of electron     161.0000032 magnetization 
 augmentation part       50.1899924 magnetization 

 Broyden mixing:
  rms(total) = 0.12230E+01    rms(broyden)= 0.12230E+01
  rms(prec ) = 0.14713E+01
  weight for this iteration     100.00

 eigenvalues of (default mixing * dielectric matrix)
  average eigenvalue GAMMA=   0.7002
  2.0932  0.9041  0.4961  0.3004  0.3004  0.1070

 Free energy of the ion-electron system (eV)
  ---------------------------------------------------
  alpha Z        PSCENC =       305.89839443
  Ewald energy   TEWEN  =     99026.97233169
  -Hartree energ DENC   =   -110925.80739584
  -exchange      EXHF   =         0.00000000
  -V(xc)+E(xc)   XCENC  =        43.06682038
  PAW double counting   =     14551.35368135   -14138.26472477
  entropy T*S    EENTRO =        -0.02030484
  eigenvalues    EBANDS =      -666.36534646
  atomic energy  EATOM  =     11706.16234457
  Solvation  Ediel_sol  =         0.00000000
  ---------------------------------------------------
  free energy    TOTEN  =       -97.00419949 eV

  energy without entropy =      -96.98389465  energy(sigma->0) =      -96.99743121


--------------------------------------------------------------------------------------------------------




--------------------------------------- Iteration      1(  12)  ---------------------------------------


    POTLOK:  cpu time    0.0180: real time    0.0182
    SETDIJ:  cpu time    0.0023: real time    0.0023
     EDDAV:  cpu time   15.8617: real time   15.8625
       DOS:  cpu time    0.0016: real time    0.0016
    CHARGE:  cpu time    0.3427: real time    0.3428
    MIXING:  cpu time    0.0010: real time    0.0010
    --------------------------------------------
      LOOP:  cpu time   16.2273: real time   16.2285

 eigenvalue-minimisations  : 14544
 total energy-change (2. order) : 0.7160598E+00  (-0.1236499E+01)
 number of electron     161.0000037 magnetization 
 augmentation part       50.1671852 magnetization 

 Broyden mixing:
  rms(total) = 0.89601E+00    rms(broyden)= 0.89593E+00
  rms(prec ) = 0.99441E+00
  weight for this iteration     100.00

 eigenvalues of (default mixing * dielectric matrix)
  average eigenvalue GAMMA=   0.6381
  2.0797  0.7121  0.7121  0.3791  0.2378  0.2378  0.1079

 Free energy of the ion-electron system (eV)
  ---------------------------------------------------
  alpha Z        PSCENC =       305.89839443
  Ewald energy   TEWEN  =     99026.97233169
  -Hartree energ DENC   =   -110916.48324070
  -exchange      EXHF   =         0.00000000
  -V(xc)+E(xc)   XCENC  =        43.15570779
  PAW double counting   =     14436.93791973   -14022.74757954
  entropy T*S    EENTRO =        -0.00698878
  eigenvalues    EBANDS =      -676.17702884
  atomic energy  EATOM  =     11706.16234457
  Solvation  Ediel_sol  =         0.00000000
  ---------------------------------------------------
  free energy    TOTEN  =       -96.28813965 eV

  energy without entropy =      -96.28115087  energy(sigma->0) =      -96.28581006


--------------------------------------------------------------------------------------------------------




--------------------------------------- Iteration      1(  13)  ---------------------------------------


    POTLOK:  cpu time    0.0179: real time    0.0258
    SETDIJ:  cpu time    0.0024: real time    0.0024
     EDDAV:  cpu time   15.7125: real time   15.7129
       DOS:  cpu time    0.0015: real time    0.0015
    CHARGE:  cpu time    0.3428: real time    0.3428
    MIXING:  cpu time    0.0011: real time    0.0011
    --------------------------------------------
      LOOP:  cpu time   16.0783: real time   16.0866

 eigenvalue-minimisations  : 14400
 total energy-change (2. order) : 0.5528947E+00  (-0.2741137E+00)
 number of electron     161.0000037 magnetization 
 augmentation part       50.1357748 magnetization 

 Broyden mixing:
  rms(total) = 0.47926E+00    rms(broyden)= 0.47923E+00
  rms(prec ) = 0.52662E+00
  weight for this iteration     100.00

 eigenvalues of (default mixing * dielectric matrix)
  average eigenvalue GAMMA=   0.6838
  2.1188  1.0609  0.6972  0.6972  0.2608  0.2608  0.2669  0.1079

 Free energy of the ion-electron system (eV)
  ---------------------------------------------------
  alpha Z        PSCENC =       305.89839443
  Ewald energy   TEWEN  =     99026.97233169
  -Hartree energ DENC   =   -110920.32297000
  -exchange      EXHF   =         0.00000000
  -V(xc)+E(xc)   XCENC  =        43.21703943
  PAW double counting   =     14411.94566250   -13997.60318744
  entropy T*S    EENTRO =        -0.01624886
  eigenvalues    EBANDS =      -671.98861131
  atomic energy  EATOM  =     11706.16234457
  Solvation  Ediel_sol  =         0.00000000
  ---------------------------------------------------
  free energy    TOTEN  =       -95.73524500 eV

  energy without entropy =      -95.71899614  energy(sigma->0) =      -95.72982871


--------------------------------------------------------------------------------------------------------




--------------------------------------- Iteration      1(  14)  ---------------------------------------


    POTLOK:  cpu time    0.0180: real time    0.0195
    SETDIJ:  cpu time    0.0023: real time    0.0023
     EDDAV:  cpu time   13.4117: real time   13.4128
       DOS:  cpu time    0.0016: real time    0.0016
    CHARGE:  cpu time    0.3444: real time    0.3445
    MIXING:  cpu time    0.0014: real time    0.0014
    --------------------------------------------
      LOOP:  cpu time   13.7793: real time   13.7821

 eigenvalue-minimisations  : 11856
 total energy-change (2. order) : 0.1277097E+00  (-0.1544969E+00)
 number of electron     161.0000040 magnetization 
 augmentation part       50.1040307 magnetization 

 Broyden mixing:
  rms(total) = 0.33587E+00    rms(broyden)= 0.33583E+00
  rms(prec ) = 0.35808E+00
  weight for this iteration     100.00

 eigenvalues of (default mixing * dielectric matrix)
  average eigenvalue GAMMA=   0.6574
  2.0678  1.0553  0.8131  0.8131  0.3178  0.2606  0.2606  0.1079  0.2205

 Free energy of the ion-electron system (eV)
  ---------------------------------------------------
  alpha Z        PSCENC =       305.89839443
  Ewald energy   TEWEN  =     99026.97233169
  -Hartree energ DENC   =   -110931.18705767
  -exchange      EXHF   =         0.00000000
  -V(xc)+E(xc)   XCENC  =        43.19134755
  PAW double counting   =     14392.28495499   -13978.18035873
  entropy T*S    EENTRO =        -0.01065789
  eigenvalues    EBANDS =      -660.73883425
  atomic energy  EATOM  =     11706.16234457
  Solvation  Ediel_sol  =         0.00000000
  ---------------------------------------------------
  free energy    TOTEN  =       -95.60753532 eV

  energy without entropy =      -95.59687743  energy(sigma->0) =      -95.60398269


--------------------------------------------------------------------------------------------------------




--------------------------------------- Iteration      1(  15)  ---------------------------------------


    POTLOK:  cpu time    0.0186: real time    0.0193
    SETDIJ:  cpu time    0.0024: real time    0.0024
     EDDAV:  cpu time   15.3085: real time   15.3101
       DOS:  cpu time    0.0016: real time    0.0016
    CHARGE:  cpu time    0.3438: real time    0.3438
    MIXING:  cpu time    0.0014: real time    0.0014
    --------------------------------------------
      LOOP:  cpu time   15.6762: real time   15.6785

 eigenvalue-minimisations  : 13920
 total energy-change (2. order) : 0.3740008E-01  (-0.2097563E-01)
 number of electron     161.0000040 magnetization 
 augmentation part       50.0904401 magnetization 

 Broyden mixing:
  rms(total) = 0.24507E+00    rms(broyden)= 0.24506E+00
  rms(prec ) = 0.26909E+00
  weight for this iteration     100.00

 eigenvalues of (default mixing * dielectric matrix)
  average eigenvalue GAMMA=   0.6655
  1.9051  1.0918  1.0918  0.8230  0.4199  0.4199  0.1079  0.2693  0.2693  0.2565

 Free energy of the ion-electron system (eV)
  ---------------------------------------------------
  alpha Z        PSCENC =       305.89839443
  Ewald energy   TEWEN  =     99026.97233169
  -Hartree energ DENC   =   -110935.06704788
  -exchange      EXHF   =         0.00000000
  -V(xc)+E(xc)   XCENC  =        43.21083217
  PAW double counting   =     14351.72675623   -13937.49473710
  entropy T*S    EENTRO =        -0.01203114
  eigenvalues    EBANDS =      -656.96697821
  atomic energy  EATOM  =     11706.16234457
  Solvation  Ediel_sol  =         0.00000000
  ---------------------------------------------------
  free energy    TOTEN  =       -95.57013524 eV

  energy without entropy =      -95.55810410  energy(sigma->0) =      -95.56612486


--------------------------------------------------------------------------------------------------------




--------------------------------------- Iteration      1(  16)  ---------------------------------------


    POTLOK:  cpu time    0.0186: real time    0.0189
    SETDIJ:  cpu time    0.0024: real time    0.0023
     EDDAV:  cpu time   15.2999: real time   15.3007
       DOS:  cpu time    0.0016: real time    0.0016
    CHARGE:  cpu time    0.3438: real time    0.3438
    MIXING:  cpu time    0.0014: real time    0.0014
    --------------------------------------------
      LOOP:  cpu time   15.6676: real time   15.6687

 eigenvalue-minimisations  : 13944
 total energy-change (2. order) : 0.1624449E-01  (-0.3481447E-02)
 number of electron     161.0000040 magnetization 
 augmentation part       50.0854920 magnetization 

 Broyden mixing:
  rms(total) = 0.16343E+00    rms(broyden)= 0.16343E+00
  rms(prec ) = 0.18249E+00
  weight for this iteration     100.00

 eigenvalues of (default mixing * dielectric matrix)
  average eigenvalue GAMMA=   0.7764
[...]
     86      -0.3533     -0.02043
     87       0.6581     -0.00000
     88       1.1509     -0.00000
     89       1.3722     -0.00000
     90       1.5264     -0.00000
     91       1.8319     -0.00000
     92       1.9725     -0.00000
     93       2.4637     -0.00000
     94       2.8756     -0.00000
     95       3.1380     -0.00000
     96       3.9084     -0.00000

 k-point    51 :      -0.4375    0.4375    0.0000
  band No.  band energies     occupation 
      1      -8.2763      2.00000
      2      -8.1843      2.00000
      3      -7.2907      2.00000
      4      -7.1954      2.00000
      5      -6.7919      2.00000
      6      -6.6537      2.00000
      7      -6.4964      2.00000
      8      -6.3844      2.00000
      9      -6.3265      2.00000
     10      -6.2408      2.00000
     11      -6.1805      2.00000
     12      -6.1034      2.00000
     13      -6.0869      2.00000
     14      -5.9449      2.00000
     15      -5.8813      2.00000
     16      -5.7308      2.00000
     17      -5.6592      2.00000
     18      -5.6280      2.00000
     19      -5.5177      2.00000
     20      -5.4444      2.00000
     21      -5.3077      2.00000
     22      -5.2694      2.00000
     23      -5.2137      2.00000
     24      -5.1075      2.00000
     25      -5.0466      2.00000
     26      -5.0210      2.00000
     27      -4.9864      2.00000
     28      -4.9244      2.00000
     29      -4.7877      2.00000
     30      -4.6091      2.00000
     31      -4.5526      2.00000
     32      -4.5195      2.00000
     33      -4.4402      2.00000
     34      -4.4059      2.00000
     35      -4.2975      2.00000
     36      -4.2305      2.00000
     37      -4.1329      2.00000
     38      -4.1058      2.00000
     39      -4.0437      2.00000
     40      -4.0041      2.00000
     41      -3.9295      2.00000
     42      -3.8525      2.00000
     43      -3.8210      2.00000
     44      -3.7032      2.00000
     45      -3.6705      2.00000
     46      -3.6070      2.00000
     47      -3.5900      2.00000
     48      -3.5645      2.00000
     49      -3.5249      2.00000
     50      -3.4993      2.00000
     51      -3.3675      2.00000
     52      -3.3356      2.00000
     53      -3.2226      2.00000
     54      -3.1073      2.00000
     55      -2.9813      2.00000
     56      -2.8654      2.00000
     57      -2.7948      2.00000
     58      -2.7585      2.00000
     59      -2.6787      2.00000
     60      -2.5731      2.00000
     61      -2.4844      2.00000
     62      -2.4055      2.00000
     63      -2.3359      2.00000
     64      -2.2650      2.00000
     65      -2.1556      2.00000
     66      -2.1231      2.00000
     67      -2.1071      2.00000
     68      -1.9859      2.00000
     69      -1.9021      2.00000
     70      -1.8330      2.00000
     71      -1.8120      2.00000
     72      -1.7401      2.00000
     73      -1.6343      2.00000
     74      -1.5240      2.00000
     75      -1.4579      2.00000
     76      -1.3381      2.00018
     77      -1.1875      2.00658
     78      -1.1311      2.01774
     79      -0.9748      2.07043
     80      -0.9429      2.05534
     81      -0.8267      1.67727
     82      -0.7473      1.08154
     83      -0.6776      0.51642
     84      -0.5826      0.03318
     85      -0.4587     -0.06394
     86      -0.3751     -0.02789
     87       0.2544     -0.00000
     88       0.5701     -0.00000
     89       0.8452     -0.00000
     90       1.5501     -0.00000
     91       1.6340     -0.00000
     92       2.3731     -0.00000
     93       2.7257     -0.00000
     94       3.2870     -0.00000
     95       3.5531     -0.00000
     96       4.0231     -0.00000

 k-point    52 :       0.1250   -0.4375    0.0000
  band No.  band energies     occupation 
      1      -8.2765      2.00000
      2      -8.1816      2.00000
      3      -7.2968      2.00000
      4      -7.2000      2.00000
      5      -6.8096      2.00000
      6      -6.6157      2.00000
      7      -6.4787      2.00000
      8      -6.4419      2.00000
      9      -6.3071      2.00000
     10      -6.2314      2.00000
     11      -6.1944      2.00000
     12      -6.1323      2.00000
     13      -6.0797      2.00000
     14      -5.9606      2.00000
     15      -5.8592      2.00000
     16      -5.7685      2.00000
     17      -5.6608      2.00000
     18      -5.6289      2.00000
     19      -5.4872      2.00000
     20      -5.4374      2.00000
     21      -5.2878      2.00000
     22      -5.2329      2.00000
     23      -5.1283      2.00000
     24      -5.1007      2.00000
     25      -5.0403      2.00000
     26      -4.9917      2.00000
     27      -4.9358      2.00000
     28      -4.9267      2.00000
     29      -4.8299      2.00000
     30      -4.6718      2.00000
     31      -4.5438      2.00000
     32      -4.5065      2.00000
     33      -4.4717      2.00000
     34      -4.4093      2.00000
     35      -4.3364      2.00000
     36      -4.2417      2.00000
     37      -4.1905      2.00000
     38      -4.1290      2.00000
     39      -4.0751      2.00000
     40      -4.0171      2.00000
     41      -3.9208      2.00000
     42      -3.8737      2.00000
     43      -3.8006      2.00000
     44      -3.7050      2.00000
     45      -3.6723      2.00000
     46      -3.6185      2.00000
     47      -3.5654      2.00000
     48      -3.5492      2.00000
     49      -3.5422      2.00000
     50      -3.4997      2.00000
     51      -3.3500      2.00000
     52      -3.2589      2.00000
     53      -3.2472      2.00000
     54      -3.1300      2.00000
     55      -2.9749      2.00000
     56      -2.8720      2.00000
     57      -2.8110      2.00000
     58      -2.7706      2.00000
     59      -2.6648      2.00000
     60      -2.5488      2.00000
     61      -2.5211      2.00000
     62      -2.4648      2.00000
     63      -2.2864      2.00000
     64      -2.2417      2.00000
     65      -2.1901      2.00000
     66      -2.0984      2.00000
     67      -2.0614      2.00000
     68      -1.9890      2.00000
     69      -1.9046      2.00000
     70      -1.8218      2.00000
     71      -1.7533      2.00000
     72      -1.7311      2.00000
     73      -1.6950      2.00000
     74      -1.5061      2.00000
     75      -1.3985      2.00003
     76      -1.2962      2.00057
     77      -1.2823      2.00081
     78      -1.1314      2.01764
     79      -1.0475      2.05079
     80      -0.8964      1.97687
     81      -0.8913      1.96300
     82      -0.7220      0.86795
     83      -0.6433      0.29209
     84      -0.5233     -0.06211
     85      -0.5203     -0.06387
     86      -0.3234     -0.01263
     87       0.2369     -0.00000
     88       0.5609     -0.00000
     89       0.8177     -0.00000
     90       1.5630     -0.00000
     91       1.5939     -0.00000
     92       2.3818     -0.00000
     93       2.7351     -0.00000
     94       3.2719     -0.00000
     95       3.5637     -0.00000
     96       4.0459     -0.00000


--------------------------------------------------------------------------------------------------------


 soft charge-density along one line, spin component           1
         0         1         2         3         4         5         6         7         8         9
 total charge-density along one line
 
 pseudopotential strength for first ion, spin component:           1
 -8.276  -0.000  -0.000  -0.012  -0.000  -8.486  -0.000  -0.000
 -0.000  -8.195   0.001  -0.000  -0.012  -0.000  -8.407   0.001
 -0.000   0.001  -8.204   0.000   0.002  -0.000   0.001  -8.416
 -0.012  -0.000   0.000  -8.203   0.000  -0.012  -0.000   0.000
 -0.000  -0.012   0.002   0.000  -8.275  -0.000  -0.012   0.002
 -8.486  -0.000  -0.000  -0.012  -0.000  -8.682  -0.000  -0.000
 -0.000  -8.407   0.001  -0.000  -0.012  -0.000  -8.604   0.001
 -0.000   0.001  -8.416   0.000   0.002  -0.000   0.001  -8.613
 -0.012  -0.000   0.000  -8.414   0.000  -0.012  -0.000   0.000
 -0.000  -0.012   0.002   0.000  -8.485  -0.000  -0.012   0.002
 -0.000  -0.000  -0.020  -0.000   0.001  -0.000  -0.000  -0.020
 -0.000  -0.001  -0.031  -0.000   0.002  -0.000  -0.001  -0.031
  0.000  -0.008   0.000  -0.000   0.000   0.000  -0.007   0.000
 -0.000  -0.000  -0.014  -0.000  -0.000  -0.000  -0.000  -0.014
  0.000  -0.000  -0.000  -0.008  -0.000   0.000  -0.000  -0.000
  0.000  -0.007   0.000  -0.000   0.000   0.000  -0.007   0.000
 -0.000  -0.000  -0.017  -0.000  -0.000  -0.000  -0.000  -0.017
  0.000  -0.000  -0.000  -0.007  -0.000   0.000  -0.000  -0.000
 total augmentation occupancy for first ion, spin component:           1
  2.580   0.000   0.000  -0.323   0.000  -1.820   0.000   0.000   0.111   0.000   0.000   0.000   0.000   0.000  -0.036   0.000
  0.000   3.442   0.015   0.000  -0.305   0.000  -1.877  -0.005   0.000   0.106   0.010  -0.001  -0.224   0.001   0.000   0.006
  0.000   0.015   3.446   0.000  -0.003   0.000  -0.005  -2.214   0.000   0.000   0.671  -0.063   0.001  -0.213   0.000  -0.000
 -0.323   0.000   0.000   3.352   0.000   0.117   0.000   0.000  -1.826   0.000   0.000   0.000   0.000   0.000  -0.220   0.000
  0.000  -0.305  -0.003   0.000   2.606   0.000   0.100  -0.001   0.000  -1.834  -0.004   0.001  -0.037   0.000   0.000   0.003
 -1.820   0.000   0.000   0.117   0.000   2.488   0.000   0.000   0.027   0.000   0.000   0.000   0.000   0.000   0.039   0.000
  0.000  -1.877  -0.005   0.000   0.100   0.000   1.932   0.001   0.000   0.034  -0.006   0.001   0.218  -0.001   0.000  -0.015
  0.000  -0.005  -2.214   0.000  -0.001   0.000   0.001   2.512   0.000   0.002  -0.711   0.092  -0.001   0.308   0.000   0.000
  0.111   0.000   0.000  -1.826   0.000   0.027   0.000   0.000   1.900   0.000   0.000   0.000   0.000   0.000   0.215   0.000
  0.000   0.106   0.000   0.000  -1.834   0.000   0.034   0.002   0.000   2.495   0.001   0.001   0.040   0.000   0.000  -0.003
  0.000   0.010   0.671   0.000  -0.004   0.000  -0.006  -0.711   0.000   0.001   2.076  -0.336   0.000   0.167   0.000  -0.000
  0.000  -0.001  -0.063   0.000   0.001   0.000   0.001   0.092   0.000   0.001  -0.336   0.072   0.000  -0.048   0.000  -0.000
  0.000  -0.224   0.001   0.000  -0.037   0.000   0.218  -0.001   0.000   0.040   0.000   0.000   0.263  -0.000   0.000  -0.014
  0.000   0.001  -0.213   0.000   0.000   0.000  -0.001   0.308   0.000   0.000   0.167  -0.048  -0.000   0.141   0.000   0.000
 -0.036   0.000   0.000  -0.220   0.000   0.039   0.000   0.000   0.215   0.000   0.000   0.000   0.000   0.000   0.262   0.000
  0.000   0.006  -0.000   0.000   0.003   0.000  -0.015   0.000   0.000  -0.003  -0.000  -0.000  -0.014   0.000   0.000   0.001
  0.000  -0.000  -0.005   0.000   0.000   0.000   0.000  -0.018   0.000  -0.000  -0.018   0.004   0.000  -0.009   0.000  -0.000
  0.003   0.000   0.000   0.006   0.000  -0.003   0.000   0.000  -0.015   0.000   0.000   0.000   0.000   0.000  -0.014   0.000


------------------------ aborting loop because EDIFF is reached ----------------------------------------



 DIPCOR: dipole corrections for dipol
 direction  3 min pos   281,
 dipolmoment           0.000000      0.000000     -0.051009 electrons x Angstroem
 Tr[quadrupol]      -954.198994

 energy correction for charged system         0.000000 eV
 dipol+quadrupol energy correction            0.000286 eV
 added-field ion interaction          0.000000 eV  (added to PSCEN)

 
  *************** adding dipol energy to TOTEN NOW **************** 
    CHARGE:  cpu time    0.3430: real time    0.3430
    FORLOC:  cpu time    0.0039: real time    0.0039
    FORNL :  cpu time    4.7250: real time    4.7253
    STRESS:  cpu time   16.2679: real time   16.2682
    FORCOR:  cpu time    0.0192: real time    0.0192
    FORHAR:  cpu time    0.0073: real time    0.0073
    MIXING:  cpu time    0.0025: real time    0.0025
    OFIELD:  cpu time    0.0001: real time    0.0001

  FORCE on cell =-STRESS in cart. coord.  units (eV):
  Direction    XX          YY          ZZ          XY          YZ          ZX
  --------------------------------------------------------------------------------------
  Alpha Z   305.89839   305.89839   305.89839
  Ewald  107900.90074107899.19324************     0.00000     1.48345    -0.00000
  Hartree110245.20846110243.86879************    -0.00000     1.45789     0.00000
  E(xc)    -712.72348  -712.74343  -717.24967     0.00004    -0.07665    -0.00000
  Local  ************************223457.82340     0.00118    -5.05928    -0.00005
  n-local    58.33094    58.05704    43.85785     4.02576     0.48552    -0.47016
  augment   835.30624   835.35868   859.74047    -0.00078     0.72004     0.00001
  Kinetic  2293.48745  2293.64585  2354.67472     2.32438     1.69244    -0.38136
  Fock        0.00000     0.00000     0.00000     0.00000     0.00000     0.00000
  -------------------------------------------------------------------------------------
  Total     -11.24457   -11.25447    -0.73557     0.00000     0.70340     0.00000
  in kB     -21.86044   -21.87969    -1.43001     0.00000     1.36748     0.00000
  external pressure =      -15.06 kB  Pullay stress =        0.00 kB


 VOLUME and BASIS-vectors are now :
 -----------------------------------------------------------------------------
  energy-cutoff  :      350.00
  volume of cell :      824.13
      direct lattice vectors                 reciprocal lattice vectors
     5.557859300  0.000000000  0.000000000     0.179925390 -0.103879972  0.000000000
     2.778929650  4.813247345  0.000000000     0.000000000  0.207759944  0.000000000
     0.000000000  0.000000000 30.806959674     0.000000000  0.000000000  0.032460198

  length of vectors
     5.557859300  5.557859300 30.806959674     0.207759944  0.207759944  0.032460198


 FORCES acting on ions
    electron-ion (+dipol)            ewald-force                    non-local-force                 convergence-correction
 -----------------------------------------------------------------------------------------------
   -.196E-06 0.262E+00 0.258E+04   -.839E-12 -.248E+00 -.258E+04   -.108E-18 -.490E-03 -.175E+00   -.503E-09 0.173E-04 0.105E-02
   0.657E-06 -.265E+01 0.286E+04   -.984E-12 0.264E+01 -.286E+04   0.694E-17 0.109E+00 -.680E+00   -.538E-09 -.662E-04 0.106E-02
   -.250E+01 0.114E+01 0.286E+04   0.253E+01 -.118E+01 -.286E+04   0.797E-01 -.336E-01 -.774E+00   -.794E-04 0.246E-04 0.128E-02
   0.250E+01 0.114E+01 0.286E+04   -.253E+01 -.118E+01 -.286E+04   -.797E-01 -.336E-01 -.774E+00   0.794E-04 0.246E-04 0.128E-02
   -.110E+01 0.491E+01 0.102E+04   0.110E+01 -.513E+01 -.102E+04   0.250E-01 0.437E-01 -.406E+00   0.188E-03 -.337E-03 -.991E-02
   0.110E+01 0.491E+01 0.102E+04   -.110E+01 -.513E+01 -.102E+04   -.250E-01 0.437E-01 -.406E+00   -.188E-03 -.337E-03 -.991E-02
   0.835E-06 -.428E+01 0.102E+04   -.267E-12 0.450E+01 -.102E+04   -.347E-17 -.771E-01 -.475E+00   0.535E-09 0.225E-03 -.948E-02
   0.412E-06 -.537E+01 0.103E+04   0.327E-11 0.549E+01 -.103E+04   0.119E-17 0.337E-02 0.113E+00   0.339E-09 0.463E-03 -.966E-02
   -.658E-06 -.706E-01 -.896E+03   -.307E-10 0.369E-01 0.896E+03   0.000E+00 0.907E-01 0.454E+00   0.443E-09 -.384E-03 -.199E-01
   -.395E+00 -.311E-01 -.900E+03   0.707E+00 0.240E+00 0.900E+03   -.320E+00 -.243E+00 0.142E+00   0.291E-03 0.555E-03 -.193E-01
   0.395E+00 -.311E-01 -.900E+03   -.707E+00 0.240E+00 0.900E+03   0.320E+00 -.243E+00 0.142E+00   -.291E-03 0.555E-03 -.193E-01
   0.438E-06 0.489E+01 -.281E+04   0.166E-11 -.486E+01 0.282E+04   -.347E-17 -.103E+00 -.640E+01   0.236E-09 -.883E-05 -.867E-02
   -.127E-06 -.334E+01 -.279E+04   -.271E-11 0.323E+01 0.279E+04   0.000E+00 0.158E+00 0.112E+01   0.254E-08 -.104E-03 -.935E-02
   -.758E+01 -.104E+01 -.280E+04   0.771E+01 0.126E+01 0.279E+04   0.166E-01 -.177E+00 0.129E+01   -.951E-04 0.721E-04 -.958E-02
   0.758E+01 -.104E+01 -.280E+04   -.771E+01 0.126E+01 0.279E+04   -.166E-01 -.177E+00 0.129E+01   0.951E-04 0.721E-04 -.958E-02
   -.394E-06 0.779E+00 -.990E+03   0.207E-10 -.108E+01 0.990E+03   0.139E-16 0.337E+00 0.156E+00   -.222E-08 -.810E-03 -.216E-01
   -.472E-06 0.101E+00 -.377E+03   0.281E-13 -.642E-01 0.380E+03   -.434E-18 0.120E-01 -.311E+01   0.420E-11 -.479E-05 -.279E-05
 -----------------------------------------------------------------------------------------------
   -.819E-06 0.290E+00 0.863E+01   0.136E-13 0.156E-13 -.142E-11   0.997E-17 -.290E+00 -.849E+01   -.910E-09 -.423E-04 -.152E+00
 
 
 POSITION                                       TOTAL-FORCE (eV/Angst)
 -----------------------------------------------------------------------------------
      0.00000      0.00000     12.00000         0.000000      0.013788      1.241337
      2.77893      0.00000     12.00000         0.000000      0.099714     -0.320741
      1.38946      2.40662     12.00000         0.102298     -0.077050     -0.099951
      4.16839      2.40662     12.00000        -0.102298     -0.077050     -0.099951
      1.38832      0.80154     14.33833         0.022331     -0.176909     -0.481405
      4.16954      0.80154     14.33833        -0.022331     -0.176909     -0.481405
      2.77893      3.21016     14.33833         0.000000      0.142497     -0.234669
      5.55786      3.20883     14.30267         0.000000      0.125472     -0.023638
      2.77893      1.60442     16.63406         0.000000      0.056572     -0.209723
      6.95262      4.01410     16.63736        -0.007838     -0.034222      0.032489
      4.16310      4.01410     16.63736         0.007838     -0.034222      0.032489
      0.00000      0.00000     19.07085         0.000000     -0.074757      0.128477
      5.55786      4.80856     18.94595         0.000000      0.042722     -0.086793
      6.94326      2.40897     18.94595         0.150499      0.045806      0.228671
      4.17246      2.40897     18.94595        -0.150499      0.045806      0.228671
      5.55786      1.59830     16.63736         0.000000      0.030420      0.160080
      0.00000      0.00000     20.62632         0.000000      0.048324     -0.013938
 -----------------------------------------------------------------------------------
    total drift:                               -0.000001     -0.000007     -0.003777


--------------------------------------------------------------------------------------------------------



  FREE ENERGIE OF THE ION-ELECTRON SYSTEM (eV)
  ---------------------------------------------------
  free  energy   TOTEN  =       -95.53209189 eV

  energy  without entropy=      -95.51898942  energy(sigma->0) =      -95.52772440
 


--------------------------------------------------------------------------------------------------------


    POTLOK:  cpu time    0.0208: real time    0.0208


--------------------------------------------------------------------------------------------------------


     LOOP+:  cpu time  472.6190: real time  472.8611
    4ORBIT:  cpu time    0.0000: real time    0.0000

 total amount of memory used by VASP MPI-rank0   455244. kBytes
=======================================================================

   base      :      30000. kBytes
   nonl-proj :     372843. kBytes
   fftplans  :       2015. kBytes
   grid      :       8030. kBytes
   one-center:        264. kBytes
   wavefun   :      42092. kBytes
 
  
  
 General timing and accounting informations for this job:
 ========================================================
  
                  Total CPU time used (sec):      478.233
                            User time (sec):      476.958
                          System time (sec):        1.275
                         Elapsed time (sec):      478.625
  
                   Maximum memory used (kb):      517688.
                   Average memory used (kb):           0.
  
                          Minor page faults:        81373
                          Major page faults:            0
                 Voluntary context switches:          892
