 vasp.5.4.4.18Apr17-6-g9f103f2a35 (build Apr 28 2017 10:53:45) complex          
  
 executed on             LinuxIFC date 2020.02.16  20:48:12
 running on   24 total cores
 distrk:  each k-point on   24 cores,    1 groups
 distr:  one band on NCORES_PER_BAND=   1 cores,   24 groups


--------------------------------------------------------------------------------------------------------


 INCAR:
 POTCAR:    PAW_PBE Ir 06Sep2000                  
 POTCAR:    PAW_PBE Pt 04Feb2005                  
 POTCAR:    PAW_PBE Au 04Oct2007                  
 POTCAR:    PAW_PBE H 15Jun2001                   

 ----------------------------------------------------------------------------- 
|                                                                             |
|           W    W    AA    RRRRR   N    N  II  N    N   GGGG   !!!           |
|           W    W   A  A   R    R  NN   N  II  NN   N  G    G  !!!           |
|           W    W  A    A  R    R  N N  N  II  N N  N  G       !!!           |
|           W WW W  AAAAAA  RRRRR   N  N N  II  N  N N  G  GGG   !            |
|           WW  WW  A    A  R   R   N   NN  II  N   NN  G    G                |
|           W    W  A    A  R    R  N    N  II  N    N   GGGG   !!!           |
|                                                                             |
|      For optimal performance we recommend to set                            |
|        NCORE= 4 - approx SQRT( number of cores)                             |
|      NCORE specifies how many cores store one orbital (NPAR=cpu/NCORE).     |
|      This setting can  greatly improve the performance of VASP for DFT.     |
|      The default,   NCORE=1            might be grossly inefficient         |
|      on modern multi-core architectures or massively parallel machines.     |
|      Do your own testing !!!!                                               |
|      Unfortunately you need to use the default for GW and RPA calculations. |
|      (for HF NCORE is supported but not extensively tested yet)             |
|                                                                             |
 ----------------------------------------------------------------------------- 

 POTCAR:    PAW_PBE Ir 06Sep2000                  
   SHA256 =  7c6af8d4d487b237782eb51e6f62977b27a1da78c3c96acd1cebefd6c308f120 Ir
   COPYR  = (c) Copyright 06Sep2000 Georg Kresse                                
   COPYR  = This file is part of the software VASP. Any use, copying, and all ot
   COPYR  = If you do not have a valid VASP license, you may not use, copy or di
   VRHFIN =Ir: s1d8                                                             
   LEXCH  = PE                                                                  
   EATOM  =   560.1833 eV,   41.1723 Ry                                         
                                                                                
   TITEL  = PAW_PBE Ir 06Sep2000                                                
   LULTRA =        F    use ultrasoft PP ?                                      
   IUNSCR =        1    unscreen: 0-lin 1-nonlin 2-no                           
   RPACOR =    2.250    partial core radius                                     
   POMASS =  192.220; ZVAL   =    9.000    mass and valenz                      
   RCORE  =    2.600    outmost cutoff radius                                   
   RWIGS  =    2.690; RWIGS  =    1.423    wigner-seitz radius (au A)           
   ENMAX  =  210.864; ENMIN  =  158.148 eV                                      
   RCLOC  =    1.857    cutoff for local pot                                    
   LCOR   =        T    correct aug charges                                     
   LPAW   =        T    paw PP                                                  
   EAUG   =  318.962                                                            
   DEXC   =    0.000                                                            
   RMAX   =    2.667    core radius for proj-oper                               
   RAUG   =    1.300    factor for augmentation sphere                          
   RDEP   =    2.748    radius for radial grids                                 
   RDEPT  =    2.300    core radius for aug-charge                              
                                                                                
   Atomic configuration                                                         
   16 entries                                                                   
     n  l   j            E        occ.                                          
     1  0  0.50    -76100.0449   2.0000                                         
     2  0  0.50    -13308.1683   2.0000                                         
     2  1  1.50    -11558.0021   6.0000                                         
     3  0  0.50     -3110.7274   2.0000                                         
     3  1  1.50     -2599.2109   6.0000                                         
     3  2  2.50     -2037.1515  10.0000                                         
     4  0  0.50      -661.6001   2.0000                                         
     4  1  1.50      -493.8981   6.0000                                         
     4  2  2.50      -288.1909  10.0000                                         
     4  3  3.50       -59.5718  14.0000                                         
     5  0  0.50       -95.3879   2.0000                                         
     5  1  1.50       -52.2747   6.0000                                         
     5  2  2.50        -5.4180   8.0000                                         
     6  0  0.50        -5.5479   1.0000                                         
     6  1  1.50        -6.8029   0.0000                                         
     5  3  2.50        -1.3606   0.0000                                         
   Description                                                                  
     l       E           TYP  RCUT    TYP  RCUT                                 
     2     -5.4179967     23  2.600                                             
     2     -6.7785793     23  2.600                                             
     0     -5.5478636     23  2.600                                             
     0      2.2542272     23  2.600                                             
     1     -2.7211652     23  2.600                                             
     1     20.4087390     23  2.600                                             
  local pseudopotential read in
  partial core-charges read in
  partial kinetic energy density read in
  atomic valenz-charges read in
  non local Contribution for L=           2  read in
    real space projection operators read in
  non local Contribution for L=           2  read in
    real space projection operators read in
  non local Contribution for L=           0  read in
    real space projection operators read in
  non local Contribution for L=           0  read in
    real space projection operators read in
  non local Contribution for L=           1  read in
    real space projection operators read in
  non local Contribution for L=           1  read in
    real space projection operators read in
    PAW grid and wavefunctions read in
 
   number of l-projection  operators is LMAX  =           6
   number of lm-projection operators is LMMAX =          18
 
 POTCAR:    PAW_PBE Pt 04Feb2005                  
   SHA256 =  3ed90460adef76debcff1cfb73ee1349b515b1a3db03439735b44de3a8db7dc8 Pt
   COPYR  = (c) Copyright 04Feb2005 Georg Kresse                                
   COPYR  = This file is part of the software VASP. Any use, copying, and all ot
   COPYR  = If you do not have a valid VASP license, you may not use, copy or di
   VRHFIN =Pt: s1d9                                                             
   LEXCH  = PE                                                                  
   EATOM  =   729.1176 eV,   53.5886 Ry                                         
                                                                                
   TITEL  = PAW_PBE Pt 04Feb2005                                                
   LULTRA =        F    use ultrasoft PP ?                                      
   IUNSCR =        1    unscreen: 0-lin 1-nonlin 2-no                           
   RPACOR =    2.330    partial core radius                                     
   POMASS =  195.080; ZVAL   =   10.000    mass and valenz                      
   RCORE  =    2.600    outmost cutoff radius                                   
   RWIGS  =    2.750; RWIGS  =    1.455    wigner-seitz radius (au A)           
   ENMAX  =  230.283; ENMIN  =  172.712 eV                                      
   ICORE  =        3    local potential                                         
   LCOR   =        T    correct aug charges                                     
   LPAW   =        T    paw PP                                                  
   EAUG   =  358.966                                                            
   DEXC   =    0.000                                                            
   RMAX   =    2.658    core radius for proj-oper                               
   RAUG   =    1.300    factor for augmentation sphere                          
   RDEP   =    2.761    radius for radial grids                                 
   RDEPT  =    2.203    core radius for aug-charge                              
                                                                                
   Atomic configuration                                                         
   16 entries                                                                   
     n  l   j            E        occ.                                          
     1  0  0.50    -78401.1885   2.0000                                         
     2  0  0.50    -13770.7750   2.0000                                         
     2  1  1.50    -11931.0468   6.0000                                         
     3  0  0.50     -3234.7234   2.0000                                         
     3  1  1.50     -2699.2216   6.0000                                         
     3  2  2.50     -2119.5714  10.0000                                         
     4  0  0.50      -695.1528   2.0000                                         
     4  1  1.50      -519.6034   6.0000                                         
     4  2  2.50      -306.6786  10.0000                                         
     4  3  3.50       -70.1041  14.0000                                         
     5  0  0.50      -101.7747   2.0000                                         
     5  1  1.50       -55.9873   6.0000                                         
     5  2  2.50        -6.1423   9.0000                                         
     6  0  0.50        -5.6573   1.0000                                         
     6  1  1.50        -6.8029   0.0000                                         
     5  3  2.50        -1.3606   0.0000                                         
   Description                                                                  
     l       E           TYP  RCUT    TYP  RCUT                                 
     2     -6.1423404     23  2.500                                             
     2     -7.5029230     23  2.500                                             
     0     -5.6573207     23  2.500                                             
     0      0.7416693     23  2.500                                             
     1     -2.7211652     23  2.600                                             
     1     20.4087390     23  2.600                                             
     3     -1.3605826     23  2.500                                             
  local pseudopotential read in
  partial core-charges read in
  partial kinetic energy density read in
  atomic valenz-charges read in
  non local Contribution for L=           2  read in
    real space projection operators read in
  non local Contribution for L=           2  read in
    real space projection operators read in
  non local Contribution for L=           0  read in
    real space projection operators read in
  non local Contribution for L=           0  read in
    real space projection operators read in
  non local Contribution for L=           1  read in
    real space projection operators read in
  non local Contribution for L=           1  read in
    real space projection operators read in
    PAW grid and wavefunctions read in
 
   number of l-projection  operators is LMAX  =           6
   number of lm-projection operators is LMMAX =          18
 
 POTCAR:    PAW_PBE Au 04Oct2007                  
   SHA256 =  d0044ae04e2bdce24051b198fc5c053d722a5bc6fe3c3b100514a13fc5d2db88 Au
   COPYR  = (c) Copyright 04Oct2007 Georg Kresse                                
   COPYR  = This file is part of the software VASP. Any use, copying, and all ot
   COPYR  = If you do not have a valid VASP license, you may not use, copy or di
   VRHFIN =Au: s1d10                                                            
   LEXCH  = PE                                                                  
   EATOM  =   926.0867 eV,   68.0654 Ry                                         
                                                                                
   TITEL  = PAW_PBE Au 04Oct2007                                                
   LULTRA =        F    use ultrasoft PP ?                                      
   IUNSCR =        1    unscreen: 0-lin 1-nonlin 2-no                           
   RPACOR =    2.330    partial core radius                                     
   POMASS =  196.966; ZVAL   =   11.000    mass and valenz                      
   RCORE  =    2.500    outmost cutoff radius                                   
   RWIGS  =    2.840; RWIGS  =    1.503    wigner-seitz radius (au A)           
   ENMAX  =  229.943; ENMIN  =  172.457 eV                                      
   ICORE  =        3    local potential                                         
   LCOR   =        T    correct aug charges                                     
   LPAW   =        T    paw PP                                                  
   EAUG   =  356.670                                                            
   DEXC   =    0.000                                                            
   RMAX   =    2.562    core radius for proj-oper                               
   RAUG   =    1.300    factor for augmentation sphere                          
   RDEP   =    2.598    radius for radial grids                                 
   RDEPT  =    2.193    core radius for aug-charge                              
                                                                                
   Atomic configuration                                                         
   16 entries                                                                   
     n  l   j            E        occ.                                          
     1  0  0.50    -80748.5001   2.0000                                         
     2  0  0.50    -14244.7466   2.0000                                         
     2  1  1.50    -12310.9591   6.0000                                         
     3  0  0.50     -3362.1768   2.0000                                         
     3  1  1.50     -2801.5463   6.0000                                         
     3  2  2.50     -2203.8206  10.0000                                         
     4  0  0.50      -729.8168   2.0000                                         
     4  1  1.50      -546.0527   6.0000                                         
     4  2  2.50      -325.7302  10.0000                                         
     4  3  3.50       -81.1472  14.0000                                         
     5  0  0.50      -108.3201   2.0000                                         
     5  1  1.50       -59.7479   6.0000                                         
     5  2  2.50        -6.8783  10.0000                                         
     6  0  0.50        -5.7602   1.0000                                         
     6  1  1.50        -6.8029   0.0000                                         
     5  3  2.50        -1.3606   0.0000                                         
   Description                                                                  
     l       E           TYP  RCUT    TYP  RCUT                                 
     2     -6.8782861     23  2.500                                             
     2     -8.2388687     23  2.500                                             
     0     -5.7601759     23  2.500                                             
     0     -0.8493231     23  2.500                                             
     1     -2.7211652     23  2.500                                             
     1     27.2116520     23  2.500                                             
     3     -1.3605826     23  2.500                                             
  local pseudopotential read in
  partial core-charges read in
  partial kinetic energy density read in
  atomic valenz-charges read in
  non local Contribution for L=           2  read in
    real space projection operators read in
  non local Contribution for L=           2  read in
    real space projection operators read in
  non local Contribution for L=           0  read in
    real space projection operators read in
  non local Contribution for L=           0  read in
    real space projection operators read in
  non local Contribution for L=           1  read in
    real space projection operators read in
  non local Contribution for L=           1  read in
    real space projection operators read in
    PAW grid and wavefunctions read in
 
   number of l-projection  operators is LMAX  =           6
   number of lm-projection operators is LMMAX =          18
 
 POTCAR:    PAW_PBE H 15Jun2001                   
   SHA256 =  030f79b5d3ab3cf0e668861823c8fb652ff669f3e15e46930bd03bfd63a607b6 H/
   COPYR  = (c) Copyright 15Jun2001 Georg Kresse                                
   COPYR  = This file is part of the software VASP. Any use, copying, and all ot
   COPYR  = If you do not have a valid VASP license, you may not use, copy or di
   VRHFIN =H: ultrasoft test                                                    
   LEXCH  = PE                                                                  
   EATOM  =    12.4884 eV,    0.9179 Ry                                         
                                                                                
   TITEL  = PAW_PBE H 15Jun2001                                                 
   LULTRA =        F    use ultrasoft PP ?                                      
   IUNSCR =        0    unscreen: 0-lin 1-nonlin 2-no                           
   RPACOR =    0.000    partial core radius                                     
   POMASS =    1.000; ZVAL   =    1.000    mass and valenz                      
   RCORE  =    1.100    outmost cutoff radius                                   
   RWIGS  =    0.700; RWIGS  =    0.370    wigner-seitz radius (au A)           
   ENMAX  =  250.000; ENMIN  =  200.000 eV                                      
   RCLOC  =    0.701    cutoff for local pot                                    
   LCOR   =        T    correct aug charges                                     
   LPAW   =        T    paw PP                                                  
   EAUG   =  400.000                                                            
   RMAX   =    1.123    core radius for proj-oper                               
   RAUG   =    1.200    factor for augmentation sphere                          
   RDEP   =    1.112    radius for radial grids                                 
   RDEPT  =    0.926    core radius for aug-charge                              
                                                                                
   Atomic configuration                                                         
    2 entries                                                                   
     n  l   j            E        occ.                                          
     1  0  0.50        -6.4927   1.0000                                         
     2  1  0.50        -3.4015   0.0000                                         
   Description                                                                  
     l       E           TYP  RCUT    TYP  RCUT                                 
     0     -6.4927494     23  1.100                                             
     0      6.8029130     23  1.100                                             
     1     -4.0817478     23  1.100                                             
  local pseudopotential read in
  atomic valenz-charges read in
  non local Contribution for L=           0  read in
    real space projection operators read in
  non local Contribution for L=           0  read in
    real space projection operators read in
  non local Contribution for L=           1  read in
    real space projection operators read in
    PAW grid and wavefunctions read in
 
   number of l-projection  operators is LMAX  =           3
   number of lm-projection operators is LMMAX =           5
 

 ----------------------------------------------------------------------------- 
|                                                                             |
|  ADVICE TO THIS USER RUNNING 'VASP/VAMP'   (HEAR YOUR MASTER'S VOICE ...):  |
|                                                                             |
|      You have a (more or less) 'large supercell' and for larger cells       |
|      it might be more efficient to use real space projection opertators     |
|      So try LREAL= Auto  in the INCAR   file.                               |
|      Mind:          For very  accurate calculation you might also keep the  |
|      reciprocal projection scheme          (i.e. LREAL=.FALSE.)             |
|                                                                             |
 ----------------------------------------------------------------------------- 

  PAW_PBE Ir 06Sep2000                  :
 energy of atom  1       EATOM= -560.1833
 kinetic energy error for atom=    0.0056 (will be added to EATOM!!)
  PAW_PBE Pt 04Feb2005                  :
 energy of atom  2       EATOM= -729.1176
 kinetic energy error for atom=    0.0144 (will be added to EATOM!!)
  PAW_PBE Au 04Oct2007                  :
 energy of atom  3       EATOM= -926.0867
 kinetic energy error for atom=    0.0152 (will be added to EATOM!!)
  PAW_PBE H 15Jun2001                   :
 energy of atom  4       EATOM=  -12.4884
 kinetic energy error for atom=    0.0203 (will be added to EATOM!!)
 
 
 POSCAR: Ir Pt Au  H                             
  positions in cartesian coordinates
  No initial velocities read in
 exchange correlation table for  LEXCH =        8
   RHO(1)=    0.500       N(1)  =     2000
   RHO(2)=  100.500       N(2)  =     4000
 


--------------------------------------------------------------------------------------------------------


 ion  position               nearest neighbor table
   1  0.000  0.000  0.390-   3 2.78   3 2.78   4 2.78   4 2.78   2 2.78   2 2.78   5 2.84   7 2.84
                             6 2.84
   2  0.500  0.000  0.390-   4 2.78   3 2.78   4 2.78   3 2.78   1 2.78   1 2.78   8 2.81   6 2.84
                             5 2.84
   3  0.000  0.500  0.390-   1 2.78   1 2.78   2 2.78   2 2.78   4 2.78   4 2.78   8 2.81   7 2.84
                             5 2.84
   4  0.500  0.500  0.390-   2 2.78   1 2.78   2 2.78   1 2.78   3 2.78   3 2.78   8 2.81   7 2.84
                             6 2.84
   5  0.167  0.167  0.465-   7 2.78   6 2.78   8 2.78   8 2.78   7 2.78   6 2.78  12 2.80   9 2.80
                            10 2.80   1 2.84   3 2.84   2 2.84
   6  0.667  0.167  0.465-   7 2.78   5 2.78   8 2.78   8 2.78   7 2.78   5 2.78  11 2.80   9 2.80
                            10 2.80   1 2.84   2 2.84   4 2.84
   7  0.167  0.667  0.465-   5 2.78   6 2.78   8 2.78   8 2.78   6 2.78   5 2.78  11 2.80  12 2.80
                            10 2.80   1 2.84   3 2.84   4 2.84
   8  0.667  0.667  0.464-   6 2.78   7 2.78   5 2.78   5 2.78   6 2.78   7 2.78   4 2.81   3 2.81
                             2 2.81   9 2.84  12 2.84  11 2.84
   9  0.834  0.332  0.540-  11 2.77  12 2.77  10 2.78  10 2.78  12 2.79  11 2.79   5 2.80   6 2.80
                            14 2.81  15 2.81   8 2.84  16 2.91
  10  0.333  0.333  0.540-  11 2.78  11 2.78  12 2.78  12 2.78   9 2.78   9 2.78   6 2.80   7 2.80
                             5 2.80  13 2.82  14 2.82  15 2.82
  11  0.834  0.834  0.540-   9 2.77  12 2.77  10 2.78  10 2.78   9 2.79  12 2.79   6 2.80   7 2.80
                            13 2.81  14 2.81   8 2.84  16 2.91
  12  0.332  0.834  0.540-   9 2.77  11 2.77  10 2.78  10 2.78   9 2.79  11 2.79   5 2.80   7 2.80
                            15 2.81  13 2.81   8 2.84  16 2.91
  13  0.500  0.999  0.615-  14 2.77  15 2.77  16 2.78  16 2.78  14 2.79  15 2.79  12 2.81  11 2.81
                            10 2.82
  14  0.999  0.500  0.615-  13 2.77  15 2.77  16 2.78  16 2.78  13 2.79  15 2.79   9 2.81  11 2.81
                            10 2.82
  15  0.500  0.500  0.615-  13 2.77  14 2.77  16 2.78  16 2.78  13 2.79  14 2.79   9 2.81  12 2.81
                            10 2.82
  16  0.000  0.000  0.619-  17 1.56  14 2.78  13 2.78  15 2.78  15 2.78  13 2.78  14 2.78  11 2.91
                            12 2.91   9 2.91
  17  0.000  0.000  0.670-  16 1.56
 
  LATTYP: Found a hexagonal cell.
 ALAT       =     5.5578593001
 C/A-ratio  =     5.5429542221
  
  Lattice vectors:
  
 A1 = (   2.7789296501,  -4.8132473446,   0.0000000000)
 A2 = (  -5.5578593001,   0.0000000000,   0.0000000000)
 A3 = (   0.0000000000,   0.0000000000, -30.8069596737)


Analysis of symmetry for initial positions (statically):
=====================================================================
 Subroutine PRICEL returns:
 Original cell was already a primitive cell.
 

 Routine SETGRP: Setting up the symmetry group for a 
 hexagonal supercell.


 Subroutine GETGRP returns: Found  6 space group operations
 (whereof  6 operations were pure point group operations)
 out of a pool of 24 trial point group operations.


The static configuration has the point symmetry C_3v.


Analysis of symmetry for dynamics (positions and initial velocities):
=====================================================================
 Subroutine PRICEL returns:
 Original cell was already a primitive cell.
 

 Routine SETGRP: Setting up the symmetry group for a 
 hexagonal supercell.


 Subroutine GETGRP returns: Found  6 space group operations
 (whereof  6 operations were pure point group operations)
 out of a pool of 24 trial point group operations.


The dynamic configuration has the point symmetry C_3v.


Analysis of constrained symmetry for selective dynamics:
=====================================================================
 Subroutine PRICEL returns:
 Original cell was already a primitive cell.
 

 Routine SETGRP: Setting up the symmetry group for a 
 hexagonal supercell.


 Subroutine GETGRP returns: Found  6 space group operations
 (whereof  6 operations were pure point group operations)
 out of a pool of 24 trial point group operations.


The constrained configuration has the point symmetry C_3v.


 Subroutine INISYM returns: Found  6 space group operations
 (whereof  6 operations are pure point group operations),
 and found     1 'primitive' translations

 
 
 KPOINTS: KPOINTS created by Atomic Simulation Env

Automatic generation of k-mesh.
Space group operators:
 irot       det(A)        alpha          n_x          n_y          n_z        tau_x        tau_y        tau_z
    1     1.000000     0.000001     1.000000     0.000000     0.000000     0.000000     0.000000     0.000000
    2     1.000000   120.000000     0.000000     0.000000     1.000000     0.000000     0.000000     0.000000
    3     1.000000   120.000000     0.000000     0.000000    -1.000000     0.000000     0.000000     0.000000
    4    -1.000000   180.000000     0.500000    -0.866025     0.000000     0.000000     0.000000     0.000000
    5    -1.000000   180.000000     1.000000     0.000000     0.000000     0.000000     0.000000     0.000000
    6    -1.000000   180.000000    -0.500000    -0.866025     0.000000     0.000000     0.000000     0.000000
 
 Subroutine IBZKPT returns following result:
 ===========================================
 
 Found     20 irreducible k-points:
 
 Following reciprocal coordinates:
            Coordinates               Weight
  0.062500  0.062500  0.000000     48.000000
  0.187500  0.062500  0.000000     96.000000
  0.312500  0.062500  0.000000     96.000000
  0.437500  0.062500  0.000000     96.000000
 -0.437500  0.062500  0.000000     96.000000
 -0.312500  0.062500  0.000000     96.000000
 -0.187500  0.062500  0.000000     96.000000
 -0.062500  0.062500  0.000000     48.000000
  0.187500  0.187500  0.000000     48.000000
  0.312500  0.187500  0.000000     96.000000
  0.437500  0.187500  0.000000     96.000000
 -0.437500  0.187500  0.000000     96.000000
 -0.312500  0.187500  0.000000     96.000000
 -0.187500  0.187500  0.000000     48.000000
  0.312500  0.312500  0.000000     48.000000
  0.437500  0.312500  0.000000     96.000000
 -0.437500  0.312500  0.000000     96.000000
 -0.312500  0.312500  0.000000     48.000000
  0.437500  0.437500  0.000000     48.000000
 -0.437500  0.437500  0.000000     48.000000
 
 Following cartesian coordinates:
            Coordinates               Weight
  0.011245  0.006492  0.000000     48.000000
  0.033736 -0.006492  0.000000     96.000000
  0.056227 -0.019477  0.000000     96.000000
  0.078717 -0.032462  0.000000     96.000000
 -0.078717  0.058432  0.000000     96.000000
 -0.056227  0.045447  0.000000     96.000000
 -0.033736  0.032462  0.000000     96.000000
 -0.011245  0.019477  0.000000     48.000000
  0.033736  0.019477  0.000000     48.000000
  0.056227  0.006492  0.000000     96.000000
  0.078717 -0.006492  0.000000     96.000000
 -0.078717  0.084402  0.000000     96.000000
 -0.056227  0.071417  0.000000     96.000000
 -0.033736  0.058432  0.000000     48.000000
  0.056227  0.032462  0.000000     48.000000
  0.078717  0.019477  0.000000     96.000000
 -0.078717  0.110372  0.000000     96.000000
 -0.056227  0.097387  0.000000     48.000000
  0.078717  0.045447  0.000000     48.000000
 -0.078717  0.136342  0.000000     48.000000
 


--------------------------------------------------------------------------------------------------------




 Dimension of arrays:
   k-points           NKPTS =     20   k-points in BZ     NKDIM =     20   number of bands    NBANDS=     96
   number of dos      NEDOS =    301   number of ions     NIONS =     17
   non local maximal  LDIM  =      6   non local SUM 2l+1 LMDIM =     18
   total plane-waves  NPLWV = 112896
   max r-space proj   IRMAX =      1   max aug-charges    IRDMAX=  10104
   dimension x,y,z NGX =    28 NGY =   28 NGZ =  144
   dimension x,y,z NGXF=    56 NGYF=   56 NGZF=  288
   support grid    NGXF=    56 NGYF=   56 NGZF=  288
   ions per type =               1  14   1   1
   NGX,Y,Z   is equivalent  to a cutoff of   8.38,  8.38,  7.77 a.u.
   NGXF,Y,Z  is equivalent  to a cutoff of  16.75, 16.75, 15.54 a.u.

 SYSTEM =  unknown system                          
 POSCAR =  Ir Pt Au  H                             

 Startparameter for this run:
   NWRITE =      2    write-flag & timer
   PREC   = normal    normal or accurate (medium, high low for compatibility)
   ISTART =      0    job   : 0-new  1-cont  2-samecut
   ICHARG =      2    charge: 1-file 2-atom 10-const
   ISPIN  =      1    spin polarized calculation?
   LNONCOLLINEAR =      F non collinear calculations
   LSORBIT =      F    spin-orbit coupling
   INIWAV =      1    electr: 0-lowe 1-rand  2-diag
   LASPH  =      F    aspherical Exc in radial PAW
   METAGGA=      F    non-selfconsistent MetaGGA calc.

 Electronic Relaxation 1
   ENCUT  =  350.0 eV  25.72 Ry    5.07 a.u.   8.48  8.48 46.99*2*pi/ulx,y,z
   ENINI  =  350.0     initial cutoff
   ENAUG  =  400.0 eV  augmentation charge cutoff
   NELM   =     60;   NELMIN=  2; NELMDL= -5     # of ELM steps 
   EDIFF  = 0.1E-04   stopping-criterion for ELM
   LREAL  =      F    real-space projection
   NLSPLINE    = F    spline interpolate recip. space projectors
   LCOMPAT=      F    compatible to vasp.4.4
   GGA_COMPAT  = T    GGA compatible to vasp.4.4-vasp.4.6
   LMAXPAW     = -100 max onsite density
   LMAXMIX     =    2 max onsite mixed and CHGCAR
   VOSKOWN=      0    Vosko Wilk Nusair interpolation
   ROPT   =    0.00000   0.00000   0.00000   0.00000
 Ionic relaxation
   EDIFFG = -.5E-01   stopping-criterion for IOM
   NSW    =      0    number of steps for IOM
   NBLOCK =      1;   KBLOCK =      1    inner block; outer block 
   IBRION =     -1    ionic relax: 0-MD 1-quasi-New 2-CG
   NFREE  =      1    steps in history (QN), initial steepest desc. (CG)
   ISIF   =      2    stress and relaxation
   IWAVPR =     10    prediction:  0-non 1-charg 2-wave 3-comb
   ISYM   =      2    0-nonsym 1-usesym 2-fastsym
   LCORR  =      T    Harris-Foulkes like correction to forces

   POTIM  = 0.5000    time-step for ionic-motion
   TEIN   =    0.0    initial temperature
   TEBEG  =    0.0;   TEEND  =   0.0 temperature during run
   SMASS  =  -3.00    Nose mass-parameter (am)
   estimated Nose-frequenzy (Omega)   =  0.10E-29 period in steps =****** mass=  -0.706E-27a.u.
   SCALEE = 1.0000    scale energy and forces
   NPACO  =    256;   APACO  = 16.0  distance and # of slots for P.C.
   PSTRESS=    0.0 pullay stress

  Mass of Ions in am
   POMASS = 192.22195.08196.97  1.00
  Ionic Valenz
   ZVAL   =   9.00 10.00 11.00  1.00
  Atomic Wigner-Seitz radii
   RWIGS  =  -1.00 -1.00 -1.00 -1.00
  virtual crystal weights 
   VCA    =   1.00  1.00  1.00  1.00
   NELECT =     161.0000    total number of electrons
   NUPDOWN=      -1.0000    fix difference up-down

 DOS related values:
   EMIN   =  10.00;   EMAX   =-10.00  energy-range for DOS
   EFERMI =   0.00
   ISMEAR =     1;   SIGMA  =   0.20  broadening in eV -4-tet -1-fermi 0-gaus

 Electronic relaxation 2 (details)
   IALGO  =     38    algorithm
   LDIAG  =      T    sub-space diagonalisation (order eigenvalues)
   LSUBROT=      F    optimize rotation matrix (better conditioning)
   TURBO    =      0    0=normal 1=particle mesh
   IRESTART =      0    0=no restart 2=restart with 2 vectors
   NREBOOT  =      0    no. of reboots
   NMIN     =      0    reboot dimension
   EREF     =   0.00    reference energy to select bands
   IMIX   =      4    mixing-type and parameters
     AMIX     =   0.40;   BMIX     =  1.00
     AMIX_MAG =   1.60;   BMIX_MAG =  1.00
     AMIN     =   0.10
     WC   =   100.;   INIMIX=   1;  MIXPRE=   1;  MAXMIX= -45

 Intra band minimization:
   WEIMIN = 0.0000     energy-eigenvalue tresh-hold
   EBREAK =  0.26E-07  absolut break condition
   DEPER  =   0.30     relativ break condition  

   TIME   =   0.40     timestep for ELM

  volume/ion in A,a.u.               =      48.48       327.15
  Fermi-wavevector in a.u.,A,eV,Ry     =   0.949916  1.795081 12.277090  0.902341
  Thomas-Fermi vector in A             =   2.078244
 
 Write flags
   LWAVE        =      F    write WAVECAR
   LDOWNSAMPLE  =      F    k-point downsampling of WAVECAR
   LCHARG       =      F    write CHGCAR
   LVTOT        =      F    write LOCPOT, total local potential
   LVHAR        =      F    write LOCPOT, Hartree potential only
   LELF         =      F    write electronic localiz. function (ELF)
   LORBIT       =      0    0 simple, 1 ext, 2 COOP (PROOUT), +10 PAW based schemes


 Dipole corrections
   LMONO  =      F    monopole corrections only (constant potential shift)
   LDIPOL =      F    correct potential (dipole corrections)
   IDIPOL =      3    1-x, 2-y, 3-z, 4-all directions 
   EPSILON=  1.0000000 bulk dielectric constant

 Exchange correlation treatment:
   GGA     =    PE    GGA type
   LEXCH   =     8    internal setting for exchange type
   VOSKOWN=      0    Vosko Wilk Nusair interpolation
   LHFCALC =     F    Hartree Fock is set to
   LHFONE  =     F    Hartree Fock one center treatment
   AEXX    =    0.0000 exact exchange contribution

 Linear response parameters
   LEPSILON=     F    determine dielectric tensor
   LRPA    =     F    only Hartree local field effects (RPA)
   LNABLA  =     F    use nabla operator in PAW spheres
   LVEL    =     F    velocity operator in full k-point grid
   LINTERFAST=   F  fast interpolation
   KINTER  =     0    interpolate to denser k-point grid
   CSHIFT  =0.1000    complex shift for real part using Kramers Kronig
   OMEGAMAX=  -1.0    maximum frequency
   DEG_THRESHOLD= 0.2000000E-02 threshold for treating states as degnerate
   RTIME   =   -0.100 relaxation time in fs
  (WPLASMAI=    0.000 imaginary part of plasma frequency in eV, 0.658/RTIME)
   DFIELD  = 0.0000000 0.0000000 0.0000000 field for delta impulse in time
 
 Orbital magnetization related:
   ORBITALMAG=     F  switch on orbital magnetization
   LCHIMAG   =     F  perturbation theory with respect to B field
   DQ        =  0.001000  dq finite difference perturbation B field
   LLRAUG    =     F  two centre corrections for induced B field



--------------------------------------------------------------------------------------------------------


 Static calculation
 charge density and potential will be updated during run
 non-spin polarized calculation
 Variant of blocked Davidson
 Davidson routine will perform the subspace rotation
 perform sub-space diagonalisation
    after iterative eigenvector-optimisation
 modified Broyden-mixing scheme, WC =      100.0
 initial mixing is a Kerker type mixing with AMIX =  0.4000 and BMIX =      1.0000
 Hartree-type preconditioning will be used
 using additional bands           15
 reciprocal scheme for non local part
 use partial core corrections
 calculate Harris-corrections to forces 
   (improved forces if not selfconsistent)
 use gradient corrections 
 use of overlap-Matrix (Vanderbilt PP)
 Methfessel and Paxton  Order N= 1 SIGMA  =   0.20


--------------------------------------------------------------------------------------------------------


  energy-cutoff  :      350.00
  volume of cell :      824.13
      direct lattice vectors                 reciprocal lattice vectors
     5.557859300  0.000000000  0.000000000     0.179925390 -0.103879972  0.000000000
     2.778929650  4.813247345  0.000000000     0.000000000  0.207759944  0.000000000
     0.000000000  0.000000000 30.806959674     0.000000000  0.000000000  0.032460198

  length of vectors
     5.557859300  5.557859300 30.806959674     0.207759944  0.207759944  0.032460198


 
 k-points in units of 2pi/SCALE and weight: KPOINTS created by Atomic Simulation Env
   0.01124534  0.00649250  0.00000000       0.031
   0.03373601 -0.00649250  0.00000000       0.062
   0.05622668 -0.01947749  0.00000000       0.062
   0.07871736 -0.03246249  0.00000000       0.062
  -0.07871736  0.05843248  0.00000000       0.062
  -0.05622668  0.04544749  0.00000000       0.062
  -0.03373601  0.03246249  0.00000000       0.062
  -0.01124534  0.01947749  0.00000000       0.031
   0.03373601  0.01947749  0.00000000       0.031
   0.05622668  0.00649250  0.00000000       0.062
   0.07871736 -0.00649250  0.00000000       0.062
  -0.07871736  0.08440248  0.00000000       0.062
  -0.05622668  0.07141748  0.00000000       0.062
  -0.03373601  0.05843248  0.00000000       0.031
   0.05622668  0.03246249  0.00000000       0.031
   0.07871736  0.01947749  0.00000000       0.062
  -0.07871736  0.11037247  0.00000000       0.062
  -0.05622668  0.09738747  0.00000000       0.031
   0.07871736  0.04544749  0.00000000       0.031
  -0.07871736  0.13634246  0.00000000       0.031
 
 k-points in reciprocal lattice and weights: KPOINTS created by Atomic Simulation Env
   0.06250000  0.06250000  0.00000000       0.031
   0.18750000  0.06250000  0.00000000       0.062
   0.31250000  0.06250000  0.00000000       0.062
   0.43750000  0.06250000  0.00000000       0.062
  -0.43750000  0.06250000  0.00000000       0.062
  -0.31250000  0.06250000  0.00000000       0.062
  -0.18750000  0.06250000  0.00000000       0.062
  -0.06250000  0.06250000  0.00000000       0.031
   0.18750000  0.18750000  0.00000000       0.031
   0.31250000  0.18750000  0.00000000       0.062
   0.43750000  0.18750000  0.00000000       0.062
  -0.43750000  0.18750000  0.00000000       0.062
  -0.31250000  0.18750000  0.00000000       0.062
  -0.18750000  0.18750000  0.00000000       0.031
   0.31250000  0.31250000  0.00000000       0.031
   0.43750000  0.31250000  0.00000000       0.062
  -0.43750000  0.31250000  0.00000000       0.062
  -0.31250000  0.31250000  0.00000000       0.031
   0.43750000  0.43750000  0.00000000       0.031
  -0.43750000  0.43750000  0.00000000       0.031
 
 position of ions in fractional coordinates (direct lattice) 
   0.00000000  0.00000000  0.38952237
   0.50000000  0.00000000  0.38952237
   0.00000000  0.50000000  0.38952237
   0.50000000  0.50000000  0.38952237
   0.16652883  0.16652883  0.46542487
   0.66694234  0.16652883  0.46542487
   0.16652883  0.66694234  0.46542487
   0.66666667  0.66666667  0.46426737
   0.83396869  0.33206261  0.54005199
   0.33333333  0.33333333  0.53994492
   0.83396869  0.83396869  0.54005199
   0.33206261  0.83396869  0.54005199
   0.50048728  0.99902544  0.61498914
   0.99902544  0.50048728  0.61498914
   0.50048728  0.50048728  0.61498914
   0.00000000  0.00000000  0.61904352
   0.00000000  0.00000000  0.66953436
 
 position of ions in cartesian coordinates  (Angst):
   0.00000000  0.00000000 12.00000000
   2.77892965  0.00000000 12.00000000
   1.38946483  2.40662367 12.00000000
   4.16839448  2.40662367 12.00000000
   1.38831573  0.80154446 14.33832516
   4.16954357  0.80154446 14.33832516
   2.77892965  3.21015843 14.33832516
   5.55785930  3.20883156 14.30266626
   5.55785930  1.59829948 16.63736001
   2.77892965  1.60441578 16.63406129
   6.95262100  4.01409760 16.63736001
   4.16309760  4.01409760 16.63736001
   5.55785930  4.80855657 18.94594552
   6.94326179  2.40896906 18.94594552
   4.17245681  2.40896906 18.94594552
   0.00000000  0.00000000 19.07084875
   0.00000000  0.00000000 20.62631794
 


--------------------------------------------------------------------------------------------------------


 k-point  1 :   0.0625 0.0625 0.0000  plane waves:   12325
 k-point  2 :   0.1875 0.0625 0.0000  plane waves:   12294
 k-point  3 :   0.3125 0.0625 0.0000  plane waves:   12263
 k-point  4 :   0.4375 0.0625 0.0000  plane waves:   12221
 k-point  5 :  -0.4375 0.0625 0.0000  plane waves:   12211
 k-point  6 :  -0.3125 0.0625 0.0000  plane waves:   12242
 k-point  7 :  -0.1875 0.0625 0.0000  plane waves:   12280
 k-point  8 :  -0.0625 0.0625 0.0000  plane waves:   12329
 k-point  9 :   0.1875 0.1875 0.0000  plane waves:   12277
 k-point 10 :   0.3125 0.1875 0.0000  plane waves:   12288
 k-point 11 :   0.4375 0.1875 0.0000  plane waves:   12234
 k-point 12 :  -0.4375 0.1875 0.0000  plane waves:   12216
 k-point 13 :  -0.3125 0.1875 0.0000  plane waves:   12215
 k-point 14 :  -0.1875 0.1875 0.0000  plane waves:   12289
 k-point 15 :   0.3125 0.3125 0.0000  plane waves:   12275
 k-point 16 :   0.4375 0.3125 0.0000  plane waves:   12239
 k-point 17 :  -0.4375 0.3125 0.0000  plane waves:   12235
 k-point 18 :  -0.3125 0.3125 0.0000  plane waves:   12232
 k-point 19 :   0.4375 0.4375 0.0000  plane waves:   12200
 k-point 20 :  -0.4375 0.4375 0.0000  plane waves:   12214

 maximum and minimum number of plane-waves per node :     12329    12200

 maximum number of plane-waves:     12329
 maximum index in each direction: 
   IXMAX=    8   IYMAX=    8   IZMAX=   46
   IXMIN=   -8   IYMIN=   -8   IZMIN=  -46


 serial   3D FFT for wavefunctions
 parallel 3D FFT for charge:
    minimum data exchange during FFTs selected (reduces bandwidth)


 total amount of memory used by VASP MPI-rank0   201964. kBytes
=======================================================================

   base      :      30000. kBytes
   nonl-proj :     145466. kBytes
   fftplans  :       2015. kBytes
   grid      :       8030. kBytes
   one-center:        264. kBytes
   wavefun   :      16189. kBytes
 
     INWAV:  cpu time    0.0000: real time    0.0000
 Broyden mixing: mesh for mixing (old mesh)
   NGX = 17   NGY = 17   NGZ = 93
  (NGX  = 56   NGY  = 56   NGZ  =288)
  gives a total of  26877 points

 initial charge density was supplied:
 charge density of overlapping atoms calculated
 number of electron     161.0000000 magnetization 
 keeping initial charge density in first step


--------------------------------------------------------------------------------------------------------


 Maximum index for augmentation-charges          824 (set IRDMAX)


--------------------------------------------------------------------------------------------------------


 First call to EWALD:  gamma=   0.189
 Maximum number of real-space cells 5x 5x 1
 Maximum number of reciprocal cells 2x 2x 8

    FEWALD:  cpu time    0.0015: real time    0.0015


--------------------------------------- Iteration      1(   1)  ---------------------------------------


    POTLOK:  cpu time    0.0194: real time    0.0284
    SETDIJ:  cpu time    0.0023: real time    0.0023
     EDDAV:  cpu time    3.5212: real time    3.5232
       DOS:  cpu time    0.0008: real time    0.0008
    --------------------------------------------
      LOOP:  cpu time    3.5437: real time    3.5547

 eigenvalue-minimisations  :  3840
 total energy-change (2. order) : 0.9823973E+03  (-0.5570120E+04)
 number of electron     161.0000000 magnetization 
 augmentation part      161.0000000 magnetization 

 Free energy of the ion-electron system (eV)
  ---------------------------------------------------
  alpha Z        PSCENC =       305.89839443
  Ewald energy   TEWEN  =     98572.80899501
  -Hartree energ DENC   =   -110660.04897130
  -exchange      EXHF   =         0.00000000
  -V(xc)+E(xc)   XCENC  =        48.79963046
  PAW double counting   =     11173.35063782   -10713.98924482
  entropy T*S    EENTRO =        -0.00376571
  eigenvalues    EBANDS =       549.41930809
  atomic energy  EATOM  =     11706.16234457
  Solvation  Ediel_sol  =         0.00000000
  ---------------------------------------------------
  free energy    TOTEN  =       982.39732854 eV

  energy without entropy =      982.40109425  energy(sigma->0) =      982.39858378


--------------------------------------------------------------------------------------------------------




--------------------------------------- Iteration      1(   2)  ---------------------------------------


     EDDAV:  cpu time    5.0210: real time    5.0224
       DOS:  cpu time    0.0008: real time    0.0008
    --------------------------------------------
      LOOP:  cpu time    5.0218: real time    5.0232

 eigenvalue-minimisations  :  5592
 total energy-change (2. order) :-0.1024397E+04  (-0.9940438E+03)
 number of electron     161.0000000 magnetization 
 augmentation part      161.0000000 magnetization 

 Free energy of the ion-electron system (eV)
  ---------------------------------------------------
  alpha Z        PSCENC =       305.89839443
  Ewald energy   TEWEN  =     98572.80899501
  -Hartree energ DENC   =   -110660.04897130
  -exchange      EXHF   =         0.00000000
  -V(xc)+E(xc)   XCENC  =        48.79963046
  PAW double counting   =     11173.35063782   -10713.98924482
  entropy T*S    EENTRO =        -0.00631714
  eigenvalues    EBANDS =      -474.97543902
  atomic energy  EATOM  =     11706.16234457
  Solvation  Ediel_sol  =         0.00000000
  ---------------------------------------------------
  free energy    TOTEN  =       -41.99997000 eV

  energy without entropy =      -41.99365285  energy(sigma->0) =      -41.99786428


--------------------------------------------------------------------------------------------------------




--------------------------------------- Iteration      1(   3)  ---------------------------------------


     EDDAV:  cpu time    4.3663: real time    4.3672
       DOS:  cpu time    0.0009: real time    0.0009
    --------------------------------------------
      LOOP:  cpu time    4.3672: real time    4.3681

 eigenvalue-minimisations  :  4800
 total energy-change (2. order) :-0.5862638E+02  (-0.5689562E+02)
 number of electron     161.0000000 magnetization 
 augmentation part      161.0000000 magnetization 

 Free energy of the ion-electron system (eV)
  ---------------------------------------------------
  alpha Z        PSCENC =       305.89839443
  Ewald energy   TEWEN  =     98572.80899501
  -Hartree energ DENC   =   -110660.04897130
  -exchange      EXHF   =         0.00000000
  -V(xc)+E(xc)   XCENC  =        48.79963046
  PAW double counting   =     11173.35063782   -10713.98924482
  entropy T*S    EENTRO =        -0.02354856
  eigenvalues    EBANDS =      -533.58458398
  atomic energy  EATOM  =     11706.16234457
  Solvation  Ediel_sol  =         0.00000000
  ---------------------------------------------------
  free energy    TOTEN  =      -100.62634637 eV

  energy without entropy =     -100.60279782  energy(sigma->0) =     -100.61849685


--------------------------------------------------------------------------------------------------------




--------------------------------------- Iteration      1(   4)  ---------------------------------------


     EDDAV:  cpu time    5.0004: real time    5.0012
       DOS:  cpu time    0.0010: real time    0.0010
    --------------------------------------------
      LOOP:  cpu time    5.0014: real time    5.0022

 eigenvalue-minimisations  :  5616
 total energy-change (2. order) :-0.1290422E+01  (-0.1283304E+01)
 number of electron     161.0000000 magnetization 
 augmentation part      161.0000000 magnetization 

 Free energy of the ion-electron system (eV)
  ---------------------------------------------------
  alpha Z        PSCENC =       305.89839443
  Ewald energy   TEWEN  =     98572.80899501
  -Hartree energ DENC   =   -110660.04897130
  -exchange      EXHF   =         0.00000000
  -V(xc)+E(xc)   XCENC  =        48.79963046
  PAW double counting   =     11173.35063782   -10713.98924482
  entropy T*S    EENTRO =        -0.02525981
  eigenvalues    EBANDS =      -534.87329517
  atomic energy  EATOM  =     11706.16234457
  Solvation  Ediel_sol  =         0.00000000
  ---------------------------------------------------
  free energy    TOTEN  =      -101.91676880 eV

  energy without entropy =     -101.89150900  energy(sigma->0) =     -101.90834887


--------------------------------------------------------------------------------------------------------




--------------------------------------- Iteration      1(   5)  ---------------------------------------


     EDDAV:  cpu time    5.0859: real time    5.0866
       DOS:  cpu time    0.0010: real time    0.0010
    CHARGE:  cpu time    0.1327: real time    0.1328
    MIXING:  cpu time    0.0008: real time    0.0010
    --------------------------------------------
      LOOP:  cpu time    5.2205: real time    5.2213

 eigenvalue-minimisations  :  5712
 total energy-change (2. order) :-0.2976954E-01  (-0.2976049E-01)
 number of electron     161.0000050 magnetization 
 augmentation part       46.8670355 magnetization 

 Broyden mixing:
  rms(total) = 0.41884E+01    rms(broyden)= 0.41883E+01
  rms(prec ) = 0.42213E+01
  weight for this iteration     100.00

 Free energy of the ion-electron system (eV)
  ---------------------------------------------------
  alpha Z        PSCENC =       305.89839443
  Ewald energy   TEWEN  =     98572.80899501
  -Hartree energ DENC   =   -110660.04897130
  -exchange      EXHF   =         0.00000000
  -V(xc)+E(xc)   XCENC  =        48.79963046
  PAW double counting   =     11173.35063782   -10713.98924482
  entropy T*S    EENTRO =        -0.02527707
  eigenvalues    EBANDS =      -534.90304744
  atomic energy  EATOM  =     11706.16234457
  Solvation  Ediel_sol  =         0.00000000
  ---------------------------------------------------
  free energy    TOTEN  =      -101.94653834 eV

  energy without entropy =     -101.92126127  energy(sigma->0) =     -101.93811265


--------------------------------------------------------------------------------------------------------




--------------------------------------- Iteration      1(   6)  ---------------------------------------


    POTLOK:  cpu time    0.0172: real time    0.0172
    SETDIJ:  cpu time    0.0021: real time    0.0021
     EDDAV:  cpu time    4.1185: real time    4.1189
       DOS:  cpu time    0.0008: real time    0.0008
    CHARGE:  cpu time    0.1310: real time    0.1310
    MIXING:  cpu time    0.0008: real time    0.0009
    --------------------------------------------
      LOOP:  cpu time    4.2704: real time    4.2710

 eigenvalue-minimisations  :  4560
 total energy-change (2. order) : 0.3894572E+01  (-0.3723753E+01)
 number of electron     161.0000042 magnetization 
 augmentation part       49.5357972 magnetization 

 Broyden mixing:
  rms(total) = 0.31614E+01    rms(broyden)= 0.31613E+01
  rms(prec ) = 0.33409E+01
  weight for this iteration     100.00

 eigenvalues of (default mixing * dielectric matrix)
  average eigenvalue GAMMA=   1.1734
  1.1734

 Free energy of the ion-electron system (eV)
  ---------------------------------------------------
  alpha Z        PSCENC =       305.89839443
  Ewald energy   TEWEN  =     98572.80899501
  -Hartree energ DENC   =   -110459.71557842
  -exchange      EXHF   =         0.00000000
  -V(xc)+E(xc)   XCENC  =        44.60213285
  PAW double counting   =     12332.90646995   -11897.19900433
  entropy T*S    EENTRO =         0.00264206
  eigenvalues    EBANDS =      -703.51836259
  atomic energy  EATOM  =     11706.16234457
  Solvation  Ediel_sol  =         0.00000000
  ---------------------------------------------------
  free energy    TOTEN  =       -98.05196645 eV

  energy without entropy =      -98.05460852  energy(sigma->0) =      -98.05284714


--------------------------------------------------------------------------------------------------------




--------------------------------------- Iteration      1(   7)  ---------------------------------------


    POTLOK:  cpu time    0.0171: real time    0.0210
    SETDIJ:  cpu time    0.0021: real time    0.0021
     EDDAV:  cpu time    5.2396: real time    5.2403
       DOS:  cpu time    0.0010: real time    0.0010
    CHARGE:  cpu time    0.1306: real time    0.1306
    MIXING:  cpu time    0.0006: real time    0.0006
    --------------------------------------------
      LOOP:  cpu time    5.3910: real time    5.3957

 eigenvalue-minimisations  :  5952
 total energy-change (2. order) :-0.4592213E+02  (-0.4864572E+02)
 number of electron     161.0000052 magnetization 
 augmentation part       48.2773120 magnetization 

 Broyden mixing:
  rms(total) = 0.59364E+01    rms(broyden)= 0.59364E+01
  rms(prec ) = 0.70796E+01
  weight for this iteration     100.00

 eigenvalues of (default mixing * dielectric matrix)
  average eigenvalue GAMMA=   0.9277
  1.6839  0.1716

 Free energy of the ion-electron system (eV)
  ---------------------------------------------------
  alpha Z        PSCENC =       305.89839443
  Ewald energy   TEWEN  =     98572.80899501
  -Hartree energ DENC   =   -110628.65978750
  -exchange      EXHF   =         0.00000000
  -V(xc)+E(xc)   XCENC  =        43.83638619
  PAW double counting   =     13097.99734395   -12670.93835426
  entropy T*S    EENTRO =         0.00026259
  eigenvalues    EBANDS =      -571.07968214
  atomic energy  EATOM  =     11706.16234457
  Solvation  Ediel_sol  =         0.00000000
  ---------------------------------------------------
  free energy    TOTEN  =      -143.97409716 eV

  energy without entropy =     -143.97435974  energy(sigma->0) =     -143.97418469


--------------------------------------------------------------------------------------------------------




--------------------------------------- Iteration      1(   8)  ---------------------------------------


    POTLOK:  cpu time    0.0163: real time    0.0163
    SETDIJ:  cpu time    0.0021: real time    0.0021
     EDDAV:  cpu time    5.0319: real time    5.0325
       DOS:  cpu time    0.0010: real time    0.0010
    CHARGE:  cpu time    0.1303: real time    0.1303
    MIXING:  cpu time    0.0006: real time    0.0006
    --------------------------------------------
      LOOP:  cpu time    5.1822: real time    5.1829

 eigenvalue-minimisations  :  5664
 total energy-change (2. order) : 0.2533083E+02  (-0.1732605E+02)
 number of electron     161.0000053 magnetization 
 augmentation part       49.3932593 magnetization 

 Broyden mixing:
  rms(total) = 0.40894E+01    rms(broyden)= 0.40893E+01
  rms(prec ) = 0.46108E+01
  weight for this iteration     100.00

 eigenvalues of (default mixing * dielectric matrix)
  average eigenvalue GAMMA=   0.8429
  2.0527  0.2380  0.2380

 Free energy of the ion-electron system (eV)
  ---------------------------------------------------
  alpha Z        PSCENC =       305.89839443
  Ewald energy   TEWEN  =     98572.80899501
  -Hartree energ DENC   =   -110588.96726050
  -exchange      EXHF   =         0.00000000
  -V(xc)+E(xc)   XCENC  =        42.95925039
  PAW double counting   =     13718.58338055   -13299.86396212
  entropy T*S    EENTRO =         0.01932082
  eigenvalues    EBANDS =      -576.24372855
  atomic energy  EATOM  =     11706.16234457
  Solvation  Ediel_sol  =         0.00000000
  ---------------------------------------------------
  free energy    TOTEN  =      -118.64326540 eV

  energy without entropy =     -118.66258622  energy(sigma->0) =     -118.64970567


--------------------------------------------------------------------------------------------------------




--------------------------------------- Iteration      1(   9)  ---------------------------------------


    POTLOK:  cpu time    0.0174: real time    0.0213
    SETDIJ:  cpu time    0.0023: real time    0.0023
     EDDAV:  cpu time    4.4880: real time    4.4886
       DOS:  cpu time    0.0012: real time    0.0012
    CHARGE:  cpu time    0.1310: real time    0.1310
    MIXING:  cpu time    0.0007: real time    0.0007
    --------------------------------------------
      LOOP:  cpu time    4.6405: real time    4.6451

 eigenvalue-minimisations  :  5016
 total energy-change (2. order) : 0.6626752E+01  (-0.1701246E+02)
 number of electron     161.0000052 magnetization 
 augmentation part       50.0606572 magnetization 

 Broyden mixing:
  rms(total) = 0.31771E+01    rms(broyden)= 0.31770E+01
  rms(prec ) = 0.42762E+01
  weight for this iteration     100.00

 eigenvalues of (default mixing * dielectric matrix)
  average eigenvalue GAMMA=   0.8164
  2.1939  0.5925  0.3203  0.1590

 Free energy of the ion-electron system (eV)
  ---------------------------------------------------
  alpha Z        PSCENC =       305.89839443
  Ewald energy   TEWEN  =     98572.80899501
  -Hartree energ DENC   =   -110474.31195201
  -exchange      EXHF   =         0.00000000
  -V(xc)+E(xc)   XCENC  =        42.66919903
  PAW double counting   =     14145.23424433   -13731.53935950
  entropy T*S    EENTRO =         0.00382383
  eigenvalues    EBANDS =      -678.94220342
  atomic energy  EATOM  =     11706.16234457
  Solvation  Ediel_sol  =         0.00000000
  ---------------------------------------------------
  free energy    TOTEN  =      -112.01651374 eV

  energy without entropy =     -112.02033757  energy(sigma->0) =     -112.01778835


--------------------------------------------------------------------------------------------------------




--------------------------------------- Iteration      1(  10)  ---------------------------------------


    POTLOK:  cpu time    0.0173: real time    0.0185
    SETDIJ:  cpu time    0.0021: real time    0.0021
     EDDAV:  cpu time    5.2194: real time    5.2201
       DOS:  cpu time    0.0010: real time    0.0010
    CHARGE:  cpu time    0.1305: real time    0.1305
    MIXING:  cpu time    0.0007: real time    0.0007
    --------------------------------------------
      LOOP:  cpu time    5.3710: real time    5.3730

 eigenvalue-minimisations  :  5880
 total energy-change (2. order) : 0.1018273E+02  (-0.8590577E+01)
 number of electron     161.0000060 magnetization 
 augmentation part       50.2680999 magnetization 

 Broyden mixing:
  rms(total) = 0.22784E+01    rms(broyden)= 0.22783E+01
  rms(prec ) = 0.27994E+01
  weight for this iteration     100.00

 eigenvalues of (default mixing * dielectric matrix)
  average eigenvalue GAMMA=   0.7177
  2.2699  0.6347  0.2684  0.2684  0.1474

 Free energy of the ion-electron system (eV)
  ---------------------------------------------------
  alpha Z        PSCENC =       305.89839443
  Ewald energy   TEWEN  =     98572.80899501
  -Hartree energ DENC   =   -110461.61535110
  -exchange      EXHF   =         0.00000000
  -V(xc)+E(xc)   XCENC  =        42.76389627
  PAW double counting   =     14410.67902913   -13997.87514636
  entropy T*S    EENTRO =        -0.02395016
  eigenvalues    EBANDS =      -680.63199851
  atomic energy  EATOM  =     11706.16234457
  Solvation  Ediel_sol  =         0.00000000
  ---------------------------------------------------
  free energy    TOTEN  =      -101.83378673 eV

  energy without entropy =     -101.80983656  energy(sigma->0) =     -101.82580334


--------------------------------------------------------------------------------------------------------




--------------------------------------- Iteration      1(  11)  ---------------------------------------


    POTLOK:  cpu time    0.0170: real time    0.0170
    SETDIJ:  cpu time    0.0023: real time    0.0023
     EDDAV:  cpu time    4.5390: real time    4.5395
       DOS:  cpu time    0.0009: real time    0.0009
    CHARGE:  cpu time    0.1337: real time    0.1337
    MIXING:  cpu time    0.0007: real time    0.0007
    --------------------------------------------
      LOOP:  cpu time    4.6937: real time    4.6942

 eigenvalue-minimisations  :  5112
 total energy-change (2. order) : 0.6159403E+01  (-0.3529671E+01)
 number of electron     161.0000054 magnetization 
 augmentation part       50.2826157 magnetization 

 Broyden mixing:
  rms(total) = 0.79681E+00    rms(broyden)= 0.79668E+00
  rms(prec ) = 0.84161E+00
  weight for this iteration     100.00

 eigenvalues of (default mixing * dielectric matrix)
  average eigenvalue GAMMA=   0.6778
  2.0538  0.6461  0.6461  0.2868  0.2868  0.1474

 Free energy of the ion-electron system (eV)
  ---------------------------------------------------
  alpha Z        PSCENC =       305.89839443
  Ewald energy   TEWEN  =     98572.80899501
  -Hartree energ DENC   =   -110463.83463281
  -exchange      EXHF   =         0.00000000
  -V(xc)+E(xc)   XCENC  =        42.84676832
  PAW double counting   =     14512.21623215   -14099.99462291
  entropy T*S    EENTRO =        -0.05149807
  eigenvalues    EBANDS =      -671.72636440
  atomic energy  EATOM  =     11706.16234457
  Solvation  Ediel_sol  =         0.00000000
  ---------------------------------------------------
  free energy    TOTEN  =       -95.67438370 eV

  energy without entropy =      -95.62288564  energy(sigma->0) =      -95.65721768


--------------------------------------------------------------------------------------------------------




--------------------------------------- Iteration      1(  12)  ---------------------------------------


    POTLOK:  cpu time    0.0168: real time    0.0168
    SETDIJ:  cpu time    0.0021: real time    0.0021
     EDDAV:  cpu time    4.9945: real time    4.9951
       DOS:  cpu time    0.0010: real time    0.0010
    CHARGE:  cpu time    0.1335: real time    0.1335
    MIXING:  cpu time    0.0008: real time    0.0008
    --------------------------------------------
      LOOP:  cpu time    5.1487: real time    5.1493

 eigenvalue-minimisations  :  5664
 total energy-change (2. order) :-0.5648466E+00  (-0.1332078E+01)
 number of electron     161.0000050 magnetization 
 augmentation part       50.2260580 magnetization 

 Broyden mixing:
  rms(total) = 0.12180E+01    rms(broyden)= 0.12179E+01
  rms(prec ) = 0.13253E+01
  weight for this iteration     100.00

 eigenvalues of (default mixing * dielectric matrix)
  average eigenvalue GAMMA=   0.6217
  2.0552  0.6471  0.6162  0.4019  0.1458  0.2427  0.2427

 Free energy of the ion-electron system (eV)
  ---------------------------------------------------
  alpha Z        PSCENC =       305.89839443
  Ewald energy   TEWEN  =     98572.80899501
  -Hartree energ DENC   =   -110465.03646732
  -exchange      EXHF   =         0.00000000
  -V(xc)+E(xc)   XCENC  =        42.90836677
  PAW double counting   =     14402.78416939   -13989.50221267
  entropy T*S    EENTRO =        -0.02074405
  eigenvalues    EBANDS =      -672.24207640
  atomic energy  EATOM  =     11706.16234457
  Solvation  Ediel_sol  =         0.00000000
  ---------------------------------------------------
  free energy    TOTEN  =       -96.23923027 eV

  energy without entropy =      -96.21848622  energy(sigma->0) =      -96.23231559


--------------------------------------------------------------------------------------------------------




--------------------------------------- Iteration      1(  13)  ---------------------------------------


    POTLOK:  cpu time    0.0173: real time    0.0187
    SETDIJ:  cpu time    0.0021: real time    0.0021
     EDDAV:  cpu time    4.6342: real time    4.6349
       DOS:  cpu time    0.0010: real time    0.0010
    CHARGE:  cpu time    0.1304: real time    0.1304
    MIXING:  cpu time    0.0008: real time    0.0008
    --------------------------------------------
      LOOP:  cpu time    4.7859: real time    4.7879

 eigenvalue-minimisations  :  5256
 total energy-change (2. order) : 0.1050960E+01  (-0.7533231E+00)
 number of electron     161.0000048 magnetization 
 augmentation part       50.1134890 magnetization 

 Broyden mixing:
  rms(total) = 0.51998E+00    rms(broyden)= 0.51992E+00
  rms(prec ) = 0.53270E+00
  weight for this iteration     100.00

 eigenvalues of (default mixing * dielectric matrix)
  average eigenvalue GAMMA=   0.6420
  2.0224  0.7470  0.7470  0.6050  0.3146  0.3146  0.1464  0.2393

 Free energy of the ion-electron system (eV)
  ---------------------------------------------------
  alpha Z        PSCENC =       305.89839443
  Ewald energy   TEWEN  =     98572.80899501
  -Hartree energ DENC   =   -110476.83708074
  -exchange      EXHF   =         0.00000000
  -V(xc)+E(xc)   XCENC  =        43.01954148
  PAW double counting   =     14397.91993643   -13984.44498293
  entropy T*S    EENTRO =        -0.01909804
  eigenvalues    EBANDS =      -659.69632067
  atomic energy  EATOM  =     11706.16234457
  Solvation  Ediel_sol  =         0.00000000
  ---------------------------------------------------
  free energy    TOTEN  =       -95.18827045 eV

  energy without entropy =      -95.16917242  energy(sigma->0) =      -95.18190444


--------------------------------------------------------------------------------------------------------




--------------------------------------- Iteration      1(  14)  ---------------------------------------


    POTLOK:  cpu time    0.0174: real time    0.0184
    SETDIJ:  cpu time    0.0022: real time    0.0022
     EDDAV:  cpu time    4.5162: real time    4.5167
       DOS:  cpu time    0.0010: real time    0.0010
    CHARGE:  cpu time    0.1306: real time    0.1306
    MIXING:  cpu time    0.0009: real time    0.0009
    --------------------------------------------
      LOOP:  cpu time    4.6682: real time    4.6697

 eigenvalue-minimisations  :  5088
 total energy-change (2. order) : 0.4178941E-02  (-0.3989341E-01)
 number of electron     161.0000049 magnetization 
 augmentation part       50.0751183 magnetization 

 Broyden mixing:
  rms(total) = 0.45169E+00    rms(broyden)= 0.45168E+00
  rms(prec ) = 0.48472E+00
  weight for this iteration     100.00

 eigenvalues of (default mixing * dielectric matrix)
  average eigenvalue GAMMA=   0.6655
  1.9656  1.0415  1.0415  0.4674  0.4674  0.1462  0.3006  0.3006  0.2588

 Free energy of the ion-electron system (eV)
  ---------------------------------------------------
  alpha Z        PSCENC =       305.89839443
  Ewald energy   TEWEN  =     98572.80899501
  -Hartree energ DENC   =   -110482.08036500
  -exchange      EXHF   =         0.00000000
  -V(xc)+E(xc)   XCENC  =        43.02995958
  PAW double counting   =     14358.92012420   -13945.38298845
  entropy T*S    EENTRO =        -0.02365714
  eigenvalues    EBANDS =      -654.51689872
  atomic energy  EATOM  =     11706.16234457
  Solvation  Ediel_sol  =         0.00000000
  ---------------------------------------------------
  free energy    TOTEN  =       -95.18409151 eV

  energy without entropy =      -95.16043438  energy(sigma->0) =      -95.17620580


--------------------------------------------------------------------------------------------------------




--------------------------------------- Iteration      1(  15)  ---------------------------------------


    POTLOK:  cpu time    0.0169: real time    0.0169
    SETDIJ:  cpu time    0.0021: real time    0.0021
     EDDAV:  cpu time    3.9235: real time    3.9239
       DOS:  cpu time    0.0010: real time    0.0010
    CHARGE:  cpu time    0.1309: real time    0.1310
    MIXING:  cpu time    0.0011: real time    0.0011
    --------------------------------------------
      LOOP:  cpu time    4.0756: real time    4.0760

 eigenvalue-minimisations  :  4344
 total energy-change (2. order) : 0.3345509E-01  (-0.1144700E-01)
 number of electron     161.0000049 magnetization 
 augmentation part       50.0725305 magnetization 

 Broyden mixing:
  rms(total) = 0.33418E+00    rms(broyden)= 0.33417E+00
  rms(prec ) = 0.36286E+00
  weight for this iteration     100.00

 eigenvalues of (default mixing * dielectric matrix)
  average eigenvalue GAMMA=   0.8000
  1.9870  1.9870  1.4851  0.5971  0.5971  0.1462  0.3069  0.3069  0.3369  0.2501

 Free energy of the ion-electron system (eV)
  ---------------------------------------------------
  alpha Z        PSCENC =       305.89839443
  Ewald energy   TEWEN  =     98572.80899501
  -Hartree energ DENC   =   -110484.25908447
  -exchange      EXHF   =         0.00000000
  -V(xc)+E(xc)   XCENC  =        43.05379344
  PAW double counting   =     14303.64850175   -13889.96080260
  entropy T*S    EENTRO =        -0.02145227
  eigenvalues    EBANDS =      -652.48132628
  atomic energy  EATOM  =     11706.16234457
  Solvation  Ediel_sol  =         0.00000000
  ---------------------------------------------------
  free energy    TOTEN  =       -95.15063642 eV

  energy without entropy =      -95.12918415  energy(sigma->0) =      -95.14348566


--------------------------------------------------------------------------------------------------------




--------------------------------------- Iteration      1(  16)  ---------------------------------------


    POTLOK:  cpu time    0.0189: real time    0.0189
    SETDIJ:  cpu time    0.0021: real time    0.0021
     EDDAV:  cpu time    4.1530: real time    4.1537
       DOS:  cpu time    0.0010: real time    0.0010
    CHARGE:  cpu time    0.1304: real time    0.1305
    MIXING:  cpu time    0.0011: real time    0.0011
    --------------------------------------------
      LOOP:  cpu time    4.3066: real time    4.3073

 eigenvalue-minimisations  :  4608
 total energy-change (2. order) : 0.5262146E-02  (-0.6994849E-01)
 number of electron     161.0000049 magnetization 
 augmentation part       50.0778121 magnetization 

 Broyden mixing:
  rms(total) = 0.23727E+00    rms(broyden)= 0.23725E+00
  rms(prec ) = 0.29216E+00
  weight for this iteration     100.00

 eigenvalues of (default mixing * dielectric matrix)
  average eigenvalue GAMMA=   0.7725
  2.0249  2.0249  1.3343  0.6602  0.6602  0.1462  0.4134  0.3290  0.3290  0.3206
  0.2551

 Free energy of the ion-electron system (eV)
  ---------------------------------------------------
  alpha Z        PSCENC =       305.89839443
  Ewald energy   TEWEN  =     98572.80899501
  -Hartree energ DENC   =   -110489.80192246
  -exchange      EXHF   =         0.00000000
  -V(xc)+E(xc)   XCENC  =        43.13190767
  PAW double counting   =     14175.79446307   -13761.77685093
  entropy T*S    EENTRO =        -0.01817143
  eigenvalues    EBANDS =      -647.34453421
  atomic energy  EATOM  =     11706.16234457
  Solvation  Ediel_sol  =         0.00000000
  ---------------------------------------------------
  free energy    TOTEN  =       -95.14537428 eV

  energy without entropy =      -95.12720285  energy(sigma->0) =      -95.13931713


--------------------------------------------------------------------------------------------------------




--------------------------------------- Iteration      1(  17)  ---------------------------------------


    POTLOK:  cpu time    0.0169: real time    0.0169
    SETDIJ:  cpu time    0.0021: real time    0.0021
     EDDAV:  cpu time    4.2688: real time    4.2693
       DOS:  cpu time    0.0008: real time    0.0008
    CHARGE:  cpu time    0.1332: real time    0.1332
    MIXING:  cpu time    0.0011: real time    0.0011
    --------------------------------------------
      LOOP:  cpu time    4.4230: real time    4.4234

 eigenvalue-minimisations  :  4776
 total energy-change (2. order) : 0.3373567E-01  (-0.1229854E-01)
 number of electron     161.0000049 magnetization 
 augmentation part       50.0557657 magnetization 

 Broyden mixing:
  rms(total) = 0.14477E+00    rms(broyden)= 0.14477E+00
  rms(prec ) = 0.17690E+00
  weight for this iteration     100.00

 eigenvalues of (default mixing * dielectric matrix)
  average eigenvalue GAMMA=   0.7547
  1.9702  1.9702  1.3499  0.7749  0.7749  0.4411  0.4411  0.1462  0.3026  0.3026
  0.2500  0.3329

 Free energy of the ion-electron system (eV)
  ---------------------------------------------------
  alpha Z        PSCENC =       305.89839443
  Ewald energy   TEWEN  =     98572.80899501
  -Hartree energ DENC   =   -110492.54541601
  -exchange      EXHF   =         0.00000000
  -V(xc)+E(xc)   XCENC  =        43.15790190
  PAW double counting   =     14195.04231238   -13781.07328259
  entropy T*S    EENTRO =        -0.02149177
  eigenvalues    EBANDS =      -644.54139654
  atomic energy  EATOM  =     11706.16234457
  Solvation  Ediel_sol  =         0.00000000
  ---------------------------------------------------
  free energy    TOTEN  =       -95.11163861 eV

  energy without entropy =      -95.09014684  energy(sigma->0) =      -95.10447469


--------------------------------------------------------------------------------------------------------




--------------------------------------- Iteration      1(  18)  ---------------------------------------


    POTLOK:  cpu time    0.0170: real time    0.0170
    SETDIJ:  cpu time    0.0021: real time    0.0021
     EDDAV:  cpu time    4.6332: real time    4.6339
       DOS:  cpu time    0.0008: real time    0.0008
    CHARGE:  cpu time    0.1307: real time    0.1307
    MIXING:  cpu time    0.0012: real time    0.0012
    --------------------------------------------
      LOOP:  cpu time    4.7850: real time    4.7856

 eigenvalue-minimisations  :  5184
 total energy-change (2. order) : 0.6358100E-02  (-0.1818646E-02)
 number of electron     161.0000050 magnetization 
 augmentation part       50.0446874 magnetization 

 Broyden mixing:
  rms(total) = 0.11609E+00    rms(broyden)= 0.11609E+00
  rms(prec ) = 0.14072E+00
  weight for this iteration     100.00

 eigenvalues of (default mixing * dielectric matrix)
  average eigenvalue GAMMA=   0.8270
  2.0886  1.7536  1.7536  1.1773  1.1773  0.5374  0.5374  0.1462  0.2527  0.3134
  0.3134  0.3862  0.3133

 Free energy of the ion-electron system (eV)
  ---------------------------------------------------
  alpha Z        PSCENC =       305.89839443
  Ewald energy   TEWEN  =     98572.80899501
  -Hartree energ DENC   =   -110493.93816727
  -exchange      EXHF   =         0.00000000
  -V(xc)+E(xc)   XCENC  =        43.16770546
  PAW double counting   =     14207.54366830   -13793.58887886
  entropy T*S    EENTRO =        -0.02287743
  eigenvalues    EBANDS =      -643.13646471
  atomic energy  EATOM  =     11706.16234457
  Solvation  Ediel_sol  =         0.00000000
  ---------------------------------------------------
  free energy    TOTEN  =       -95.10528051 eV

  energy without entropy =      -95.08240308  energy(sigma->0) =      -95.09765470


--------------------------------------------------------------------------------------------------------




--------------------------------------- Iteration      1(  19)  ---------------------------------------


    POTLOK:  cpu time    0.0170: real time    0.0170
    SETDIJ:  cpu time    0.0021: real time    0.0021
     EDDAV:  cpu time    5.2184: real time    5.2190
       DOS:  cpu time    0.0010: real time    0.0010
    CHARGE:  cpu time    0.1331: real time    0.1331
    MIXING:  cpu time    0.0012: real time    0.0012
    --------------------------------------------
      LOOP:  cpu time    5.3728: real time    5.3734

 eigenvalue-minimisations  :  5928
 total energy-change (2. order) : 0.1033242E-01  (-0.3752600E-02)
 number of electron     161.0000050 magnetization 
 augmentation part       50.0343505 magnetization 

 Broyden mixing:
  rms(total) = 0.63116E-01    rms(broyden)= 0.63111E-01
  rms(prec ) = 0.67531E-01
  weight for this iteration     100.00

 eigenvalues of (default mixing * dielectric matrix)
  average eigenvalue GAMMA=   0.8712
  2.4390  2.0857  2.0857  0.9793  0.8774  0.8774  0.5722  0.5722  0.1462  0.2522
  0.3126  0.3126  0.3630  0.3209

 Free energy of the ion-electron system (eV)
  ---------------------------------------------------
  alpha Z        PSCENC =       305.89839443
  Ewald energy   TEWEN  =     98572.80899501
  -Hartree energ DENC   =   -110496.42420072
  -exchange      EXHF   =         0.00000000
  -V(xc)+E(xc)   XCENC  =        43.19259971
  PAW double counting   =     14223.94687047   -13809.96308890
  entropy T*S    EENTRO =        -0.02305521
  eigenvalues    EBANDS =      -640.69380746
  atomic energy  EATOM  =     11706.16234457
  Solvation  Ediel_sol  =         0.00000000
  ---------------------------------------------------
  free energy    TOTEN  =       -95.09494809 eV

  energy without entropy =      -95.07189289  energy(sigma->0) =      -95.08726303


--------------------------------------------------------------------------------------------------------




--------------------------------------- Iteration      1(  20)  ---------------------------------------


    POTLOK:  cpu time    0.0172: real time    0.0198
    SETDIJ:  cpu time    0.0021: real time    0.0021
     EDDAV:  cpu time    4.3236: real time    4.3242
       DOS:  cpu time    0.0010: real time    0.0010
    CHARGE:  cpu time    0.1306: real time    0.1306
    MIXING:  cpu time    0.0013: real time    0.0013
    --------------------------------------------
      LOOP:  cpu time    4.4757: real time    4.4790

 eigenvalue-minimisations  :  4848
 total energy-change (2. order) : 0.7609509E-03  (-0.7680009E-03)
 number of electron     161.0000050 magnetization 
 augmentation part       50.0311623 magnetization 

 Broyden mixing:
[...]
     86      -0.7179      1.49142
     87      -0.4315     -0.06750
     88      -0.0023     -0.00004
     89       0.1919     -0.00000
     90       1.0290     -0.00000
     91       1.9707     -0.00000
     92       2.1980     -0.00000
     93       3.0688     -0.00000
     94       4.0333     -0.00000
     95       4.1156     -0.00000
     96       4.5002     -0.00000

 k-point    19 :       0.4375    0.4375    0.0000
  band No.  band energies     occupation 
      1      -8.6072      2.00000
      2      -7.9732      2.00000
      3      -7.6447      2.00000
      4      -7.2735      2.00000
      5      -7.0115      2.00000
      6      -6.6405      2.00000
      7      -6.4852      2.00000
      8      -6.4558      2.00000
      9      -6.3952      2.00000
     10      -6.3431      2.00000
     11      -6.3128      2.00000
     12      -6.2069      2.00000
     13      -6.0648      2.00000
     14      -6.0151      2.00000
     15      -5.9043      2.00000
     16      -5.8044      2.00000
     17      -5.7360      2.00000
     18      -5.6058      2.00000
     19      -5.6010      2.00000
     20      -5.4658      2.00000
     21      -5.3550      2.00000
     22      -5.2987      2.00000
     23      -5.2559      2.00000
     24      -5.0488      2.00000
     25      -5.0419      2.00000
     26      -4.9607      2.00000
     27      -4.8838      2.00000
     28      -4.7850      2.00000
     29      -4.7490      2.00000
     30      -4.6814      2.00000
     31      -4.6054      2.00000
     32      -4.5026      2.00000
     33      -4.4320      2.00000
     34      -4.3687      2.00000
     35      -4.3285      2.00000
     36      -4.1740      2.00000
     37      -4.1626      2.00000
     38      -4.0564      2.00000
     39      -3.9894      2.00000
     40      -3.8525      2.00000
     41      -3.7884      2.00000
     42      -3.7082      2.00000
     43      -3.5872      2.00000
     44      -3.5824      2.00000
     45      -3.5093      2.00000
     46      -3.4765      2.00000
     47      -3.4681      2.00000
     48      -3.4352      2.00000
     49      -3.3595      2.00000
     50      -3.3504      2.00000
     51      -3.2898      2.00000
     52      -3.1206      2.00000
     53      -3.0866      2.00000
     54      -3.0578      2.00000
     55      -2.9433      2.00000
     56      -2.8288      2.00000
     57      -2.7904      2.00000
     58      -2.7319      2.00000
     59      -2.6025      2.00000
     60      -2.5919      2.00000
     61      -2.4141      2.00000
     62      -2.3315      2.00000
     63      -2.2649      2.00000
     64      -2.2274      2.00000
     65      -2.1628      2.00000
     66      -2.0925      2.00000
     67      -1.9594      2.00000
     68      -1.9383      2.00000
     69      -1.9346      2.00000
     70      -1.8819      2.00000
     71      -1.7381      2.00000
     72      -1.7068      2.00000
     73      -1.6680      2.00000
     74      -1.4587      2.00000
     75      -1.3203      2.00003
     76      -1.2656      2.00015
     77      -1.0488      2.01814
     78      -0.9797      2.04477
     79      -0.8176      1.98234
     80      -0.7127      1.45354
     81      -0.6556      0.99056
     82      -0.6225      0.71458
     83      -0.4929      0.01046
     84      -0.3814     -0.06518
     85      -0.3497     -0.05209
     86      -0.3077     -0.03324
     87       0.4626     -0.00000
     88       1.2430     -0.00000
     89       1.4216     -0.00000
     90       1.5372     -0.00000
     91       1.8897     -0.00000
     92       1.9170     -0.00000
     93       2.4228     -0.00000
     94       2.9293     -0.00000
     95       3.1072     -0.00000
     96       3.8559     -0.00000

 k-point    20 :      -0.4375    0.4375    0.0000
  band No.  band energies     occupation 
      1      -8.2469      2.00000
      2      -8.1119      2.00000
      3      -7.5620      2.00000
      4      -7.1199      2.00000
      5      -7.0013      2.00000
      6      -6.6722      2.00000
      7      -6.4839      2.00000
      8      -6.3556      2.00000
      9      -6.3086      2.00000
     10      -6.2108      2.00000
     11      -6.1061      2.00000
     12      -6.0797      2.00000
     13      -5.9951      2.00000
     14      -5.9321      2.00000
     15      -5.8145      2.00000
     16      -5.6721      2.00000
     17      -5.6477      2.00000
     18      -5.5559      2.00000
     19      -5.4963      2.00000
     20      -5.4568      2.00000
     21      -5.3787      2.00000
     22      -5.2874      2.00000
     23      -5.1877      2.00000
     24      -5.1497      2.00000
     25      -5.0912      2.00000
     26      -4.9671      2.00000
     27      -4.9143      2.00000
     28      -4.8973      2.00000
     29      -4.8346      2.00000
     30      -4.7519      2.00000
     31      -4.6724      2.00000
     32      -4.6471      2.00000
     33      -4.4857      2.00000
     34      -4.4206      2.00000
     35      -4.3850      2.00000
     36      -4.2214      2.00000
     37      -4.1555      2.00000
     38      -4.1064      2.00000
     39      -4.0743      2.00000
     40      -4.0543      2.00000
     41      -3.9660      2.00000
     42      -3.9018      2.00000
     43      -3.8428      2.00000
     44      -3.6792      2.00000
     45      -3.5762      2.00000
     46      -3.5581      2.00000
     47      -3.5113      2.00000
     48      -3.4991      2.00000
     49      -3.4496      2.00000
     50      -3.4160      2.00000
     51      -3.2876      2.00000
     52      -3.2516      2.00000
     53      -3.1278      2.00000
     54      -2.9092      2.00000
     55      -2.8456      2.00000
     56      -2.7718      2.00000
     57      -2.7476      2.00000
     58      -2.6784      2.00000
     59      -2.5711      2.00000
     60      -2.4977      2.00000
     61      -2.4138      2.00000
     62      -2.3942      2.00000
     63      -2.3820      2.00000
     64      -2.2193      2.00000
     65      -2.1635      2.00000
     66      -2.0954      2.00000
     67      -2.0003      2.00000
     68      -1.9366      2.00000
     69      -1.8286      2.00000
     70      -1.7794      2.00000
     71      -1.7458      2.00000
     72      -1.6728      2.00000
     73      -1.5762      2.00000
     74      -1.4593      2.00000
     75      -1.3143      2.00003
     76      -1.2720      2.00012
     77      -1.0987      2.00766
     78      -1.0175      2.02859
     79      -0.8370      2.02322
     80      -0.7839      1.87072
     81      -0.7572      1.74251
     82      -0.6794      1.19013
     83      -0.5597      0.27632
     84      -0.4868     -0.00349
     85      -0.4284     -0.06854
     86      -0.2822     -0.02357
     87       0.2641     -0.00000
     88       0.4585     -0.00000
     89       0.8091     -0.00000
     90       1.6005     -0.00000
     91       1.6272     -0.00000
     92       2.4369     -0.00000
     93       2.6183     -0.00000
     94       3.2807     -0.00000
     95       3.5793     -0.00000
     96       4.0617     -0.00000


--------------------------------------------------------------------------------------------------------


 soft charge-density along one line, spin component           1
         0         1         2         3         4         5         6         7         8         9
 total charge-density along one line
 
 pseudopotential strength for first ion, spin component:           1
 -8.244   0.000  -0.000  -0.012  -0.000  -8.455   0.000  -0.000
  0.000  -8.165   0.000  -0.000  -0.012   0.000  -8.377   0.000
 -0.000   0.000  -8.171   0.000  -0.000  -0.000   0.000  -8.383
 -0.012  -0.000   0.000  -8.165   0.000  -0.012  -0.000   0.000
 -0.000  -0.012  -0.000   0.000  -8.244  -0.000  -0.012  -0.000
 -8.455   0.000  -0.000  -0.012  -0.000  -8.652   0.000  -0.000
  0.000  -8.377   0.000  -0.000  -0.012   0.000  -8.575   0.000
 -0.000   0.000  -8.383   0.000  -0.000  -0.000   0.000  -8.581
 -0.012  -0.000   0.000  -8.377   0.000  -0.012  -0.000   0.000
 -0.000  -0.012  -0.000   0.000  -8.455  -0.000  -0.012  -0.000
 -0.000  -0.000  -0.021  -0.000  -0.000  -0.000  -0.000  -0.021
 -0.000  -0.000  -0.032  -0.000  -0.000  -0.000  -0.000  -0.032
 -0.000  -0.008   0.000  -0.000   0.000  -0.000  -0.007   0.000
 -0.000   0.000  -0.014   0.000  -0.000  -0.000   0.000  -0.014
  0.000  -0.000   0.000  -0.008  -0.000   0.000  -0.000   0.000
 -0.000  -0.007   0.000  -0.000   0.000  -0.000  -0.007   0.000
 -0.000   0.000  -0.017   0.000  -0.000  -0.000   0.000  -0.017
  0.000  -0.000   0.000  -0.007  -0.000   0.000  -0.000   0.000
 total augmentation occupancy for first ion, spin component:           1
  2.577   0.000  -0.000  -0.310   0.000  -1.819  -0.000   0.000   0.102  -0.000  -0.000   0.000   0.000   0.000  -0.036  -0.000
  0.000   3.419   0.000   0.000  -0.310  -0.000  -1.867  -0.000  -0.000   0.108   0.000   0.000  -0.226   0.000  -0.000   0.006
 -0.000   0.000   3.472   0.000  -0.000   0.000  -0.000  -2.237  -0.000   0.000   0.675  -0.064   0.000  -0.215   0.000  -0.000
 -0.310   0.000   0.000   3.419  -0.000   0.108  -0.000  -0.000  -1.867   0.000   0.000   0.000  -0.000   0.000  -0.226   0.000
  0.000  -0.310  -0.000  -0.000   2.577   0.000   0.102   0.000   0.000  -1.819  -0.000   0.000  -0.036   0.000  -0.000   0.003
 -1.819  -0.000   0.000   0.108  -0.000   2.489  -0.000  -0.000   0.034   0.000   0.000  -0.000  -0.000  -0.000   0.039   0.000
  0.000  -1.867  -0.000  -0.000   0.102  -0.000   1.928  -0.000   0.000   0.034   0.000   0.000   0.219   0.000   0.000  -0.015
  0.000  -0.000  -2.237  -0.000   0.000  -0.000  -0.000   2.532   0.000  -0.000  -0.715   0.091  -0.000   0.309  -0.000   0.000
  0.102  -0.000  -0.000  -1.867   0.000   0.034   0.000   0.000   1.928   0.000  -0.000   0.000   0.000   0.000   0.219  -0.000
  0.000   0.108   0.000   0.000  -1.819   0.000   0.034  -0.000   0.000   2.489   0.000  -0.000   0.039  -0.000   0.000  -0.003
 -0.000   0.000   0.675   0.000  -0.000   0.000   0.000  -0.715  -0.000   0.000   2.077  -0.337   0.000   0.167   0.000  -0.000
  0.000   0.000  -0.064   0.000   0.000  -0.000   0.000   0.091  -0.000  -0.000  -0.337   0.072   0.000  -0.048   0.000  -0.000
  0.000  -0.226   0.000  -0.000  -0.036  -0.000   0.219  -0.000   0.000   0.039   0.000   0.000   0.263  -0.000   0.000  -0.014
  0.000  -0.000  -0.215   0.000   0.000  -0.000  -0.000   0.309   0.000  -0.000   0.167  -0.048  -0.000   0.141  -0.000   0.000
 -0.036  -0.000   0.000  -0.226  -0.000   0.039   0.000  -0.000   0.219   0.000   0.000   0.000   0.000  -0.000   0.263   0.000
 -0.000   0.006  -0.000   0.000   0.003   0.000  -0.015   0.000   0.000  -0.003   0.000  -0.000  -0.014   0.000  -0.000   0.001
  0.000  -0.000  -0.004  -0.000   0.000   0.000   0.000  -0.018   0.000   0.000  -0.018   0.004   0.000  -0.009   0.000  -0.000
  0.003   0.000  -0.000   0.006   0.000  -0.003  -0.000   0.000  -0.015  -0.000   0.000   0.000  -0.000   0.000  -0.014   0.000


------------------------ aborting loop because EDIFF is reached ----------------------------------------



 DIPCOR: dipole corrections for dipol
 direction  3 min pos   283,
 dipolmoment           0.000000      0.000000     -0.092517 electrons x Angstroem
 Tr[quadrupol]      -950.117256

 energy correction for charged system         0.000000 eV
 dipol+quadrupol energy correction            0.000940 eV
 added-field ion interaction          0.000000 eV  (added to PSCEN)

 
  *************** adding dipol energy to TOTEN NOW **************** 
    CHARGE:  cpu time    0.1309: real time    0.1310
    FORLOC:  cpu time    0.0027: real time    0.0027
    FORNL :  cpu time    1.7870: real time    1.7871
    STRESS:  cpu time    3.2225: real time    3.2230
    FORCOR:  cpu time    0.0180: real time    0.0180
    FORHAR:  cpu time    0.0060: real time    0.0061
    MIXING:  cpu time    0.0022: real time    0.0022
    OFIELD:  cpu time    0.0000: real time    0.0000

  FORCE on cell =-STRESS in cart. coord.  units (eV):
  Direction    XX          YY          ZZ          XY          YZ          ZX
  --------------------------------------------------------------------------------------
  Alpha Z   305.89839   305.89839   305.89839
  Ewald  107439.41263107439.41263************     0.00000    -0.00000    -0.00000
  Hartree109791.79752109791.79752************    -0.00000     0.00000     0.00000
  E(xc)    -712.63289  -712.63290  -716.89459     0.00001    -0.00000    -0.00000
  Local  ************************222538.40247     0.00103    -0.00004    -0.00007
  n-local    96.74928    23.64513    44.74621   -21.44327    -4.65299     2.67057
  augment   836.06417   836.06506   858.03751    -0.00078     0.00000     0.00000
  Kinetic  2305.08852  2282.92615  2351.15005    -6.22772    -5.95571     3.71597
  Fock        0.00000     0.00000     0.00000     0.00000     0.00000     0.00000
  -------------------------------------------------------------------------------------
  Total     -10.92268   -10.92268    -2.25709     0.00000     0.00000     0.00000
  in kB     -21.23466   -21.23466    -4.38799     0.00000     0.00000     0.00000
  external pressure =      -15.62 kB  Pullay stress =        0.00 kB


 VOLUME and BASIS-vectors are now :
 -----------------------------------------------------------------------------
  energy-cutoff  :      350.00
  volume of cell :      824.13
      direct lattice vectors                 reciprocal lattice vectors
     5.557859300  0.000000000  0.000000000     0.179925390 -0.103879972  0.000000000
     2.778929650  4.813247345  0.000000000     0.000000000  0.207759944  0.000000000
     0.000000000  0.000000000 30.806959674     0.000000000  0.000000000  0.032460198

  length of vectors
     5.557859300  5.557859300 30.806959674     0.207759944  0.207759944  0.032460198


 FORCES acting on ions
    electron-ion (+dipol)            ewald-force                    non-local-force                 convergence-correction
 -----------------------------------------------------------------------------------------------
   -.180E-06 -.104E-06 0.257E+04   -.839E-12 -.369E-12 -.257E+04   0.283E-17 -.149E-18 -.165E+00   -.101E-09 -.585E-10 0.610E-02
   0.931E-06 -.259E+01 0.286E+04   -.989E-12 0.264E+01 -.286E+04   0.520E-17 0.698E-01 -.748E+00   0.147E-09 0.107E-03 0.698E-02
   -.224E+01 0.129E+01 0.286E+04   0.229E+01 -.132E+01 -.286E+04   0.604E-01 -.349E-01 -.748E+00   0.928E-04 -.536E-04 0.698E-02
   0.224E+01 0.129E+01 0.286E+04   -.229E+01 -.132E+01 -.286E+04   -.604E-01 -.349E-01 -.748E+00   -.928E-04 -.536E-04 0.698E-02
   0.350E+01 0.202E+01 0.101E+04   -.370E+01 -.214E+01 -.101E+04   0.804E-01 0.464E-01 -.439E+00   0.125E-02 0.723E-03 0.940E-02
   -.350E+01 0.202E+01 0.101E+04   0.370E+01 -.214E+01 -.101E+04   -.804E-01 0.464E-01 -.439E+00   -.125E-02 0.723E-03 0.940E-02
   0.727E-06 -.404E+01 0.101E+04   -.457E-12 0.427E+01 -.101E+04   0.520E-17 -.929E-01 -.439E+00   0.366E-09 -.145E-02 0.940E-02
   0.692E-06 0.400E-06 0.103E+04   0.354E-11 0.232E-11 -.103E+04   0.379E-18 0.113E-16 0.217E+00   0.182E-09 0.105E-09 0.809E-02
   -.181E-06 -.409E+01 -.871E+03   0.261E-11 0.388E+01 0.871E+03   0.000E+00 0.257E+00 0.975E-01   -.301E-08 -.334E-03 -.496E-02
   -.793E-06 -.458E-06 -.871E+03   -.667E-11 -.167E-10 0.871E+03   -.260E-17 0.000E+00 0.363E+00   0.260E-09 0.150E-09 -.547E-02
   0.354E+01 0.204E+01 -.871E+03   -.336E+01 -.194E+01 0.871E+03   -.222E+00 -.128E+00 0.975E-01   0.289E-03 0.167E-03 -.496E-02
   -.354E+01 0.204E+01 -.871E+03   0.336E+01 -.194E+01 0.871E+03   0.222E+00 -.128E+00 0.975E-01   -.289E-03 0.167E-03 -.496E-02
   0.193E-06 -.338E+01 -.276E+04   -.464E-11 0.320E+01 0.276E+04   -.694E-17 0.245E+00 0.125E+01   0.285E-09 0.356E-04 -.709E-02
   -.292E+01 0.169E+01 -.276E+04   0.277E+01 -.160E+01 0.276E+04   0.213E+00 -.123E+00 0.125E+01   0.308E-04 -.178E-04 -.709E-02
   0.292E+01 0.169E+01 -.276E+04   -.277E+01 -.160E+01 0.276E+04   -.213E+00 -.123E+00 0.125E+01   -.308E-04 -.178E-04 -.709E-02
   -.202E-05 -.116E-05 -.306E+04   0.174E-11 0.879E-12 0.307E+04   0.867E-18 0.434E-18 -.605E+01   -.279E-11 -.157E-11 -.723E-02
   -.684E-06 -.395E-06 -.381E+03   0.267E-13 0.970E-14 0.384E+03   0.000E+00 0.136E-19 -.297E+01   -.104E-10 -.599E-11 -.940E-04
 -----------------------------------------------------------------------------------------------
   -.414E-05 -.239E-05 0.808E+01   -.299E-14 0.174E-13 0.398E-12   0.867E-18 0.143E-16 -.810E+01   0.175E-09 0.101E-09 0.144E-01
 
 
 POSITION                                       TOTAL-FORCE (eV/Angst)
 -----------------------------------------------------------------------------------
      0.00000      0.00000     12.00000         0.000000      0.000000      1.198860
      2.77893      0.00000     12.00000        -0.000000      0.127403     -0.147463
      1.38946      2.40662     12.00000         0.110335     -0.063702     -0.147463
      4.16839      2.40662     12.00000        -0.110335     -0.063702     -0.147463
      1.38832      0.80154     14.33833        -0.114813     -0.066288     -0.284249
      4.16954      0.80154     14.33833         0.114813     -0.066288     -0.284249
      2.77893      3.21016     14.33833        -0.000000      0.132575     -0.284249
      5.55786      3.20883     14.30267         0.000000      0.000000      0.086747
      5.55786      1.59830     16.63736         0.000000      0.044919      0.021489
      2.77893      1.60442     16.63406         0.000000      0.000000     -0.118320
      6.95262      4.01410     16.63736        -0.038901     -0.022459      0.021489
      4.16310      4.01410     16.63736         0.038901     -0.022459      0.021489
      5.55786      4.80856     18.94595         0.000000      0.072529     -0.187661
      6.94326      2.40897     18.94595         0.062812     -0.036264     -0.187661
      4.17246      2.40897     18.94595        -0.062812     -0.036264     -0.187661
      0.00000      0.00000     19.07085         0.000000      0.000000      0.253459
      0.00000      0.00000     20.62632         0.000000      0.000000      0.372906
 -----------------------------------------------------------------------------------
    total drift:                               -0.000004     -0.000002     -0.004314


--------------------------------------------------------------------------------------------------------



  FREE ENERGIE OF THE ION-ELECTRON SYSTEM (eV)
  ---------------------------------------------------
  free  energy   TOTEN  =       -95.09058296 eV

  energy  without entropy=      -95.06716352  energy(sigma->0) =      -95.08277648
 


--------------------------------------------------------------------------------------------------------


    POTLOK:  cpu time    0.0196: real time    0.0196


--------------------------------------------------------------------------------------------------------


     LOOP+:  cpu time  145.4521: real time  145.5155
    4ORBIT:  cpu time    0.0000: real time    0.0000

 total amount of memory used by VASP MPI-rank0   201964. kBytes
=======================================================================

   base      :      30000. kBytes
   nonl-proj :     145466. kBytes
   fftplans  :       2015. kBytes
   grid      :       8030. kBytes
   one-center:        264. kBytes
   wavefun   :      16189. kBytes
 
  
  
 General timing and accounting informations for this job:
 ========================================================
  
                  Total CPU time used (sec):      147.762
                            User time (sec):      147.210
                          System time (sec):        0.552
                         Elapsed time (sec):      147.996
  
                   Maximum memory used (kb):      233564.
                   Average memory used (kb):           0.
  
                          Minor page faults:        63534
                          Major page faults:            0
                 Voluntary context switches:          644
