   17   17    1    1
  0.4847811E+02  0.5557859E-09  0.5557859E-09  0.3080696E-08  0.5000000E-15
  1.000000000000000E-004
  CAR 
 unknown system                          
    161     52     96
 
  0.6250000E-01  0.6250000E-01  0.0000000E+00  0.1041667E-01
    1      -10.076492   1.000000
    2       -8.850011   1.000000
    3       -7.787945   1.000000
    4       -7.623663   1.000000
    5       -7.365824   1.000000
    6       -7.321815   1.000000
    7       -7.312917   1.000000
    8       -7.207882   1.000000
    9       -7.164773   1.000000
   10       -7.153709   1.000000
   11       -6.804225   1.000000
   12       -6.717253   1.000000
   13       -6.717028   1.000000
   14       -6.704822   1.000000
   15       -6.685966   1.000000
   16       -6.507206   1.000000
   17       -6.461783   1.000000
   18       -6.411759   1.000000
   19       -6.386067   1.000000
   20       -5.942788   1.000000
   21       -5.709358   1.000000
   22       -5.614139   1.000000
   23       -5.557337   1.000000
   24       -4.852020   1.000000
   25       -4.786948   1.000000
   26       -4.741436   1.000000
   27       -4.582455   1.000000
   28       -4.554856   1.000000
   29       -4.545713   1.000000
   30       -4.509530   1.000000
   31       -4.289747   1.000000
   32       -4.246033   1.000000
   33       -4.212836   1.000000
   34       -4.090452   1.000000
   35       -4.082949   1.000000
   36       -3.981020   1.000000
   37       -3.957751   1.000000
   38       -3.896431   1.000000
   39       -3.852028   1.000000
   40       -3.814455   1.000000
   41       -3.741880   1.000000
   42       -3.600975   1.000000
   43       -3.570151   1.000000
   44       -3.399516   1.000000
   45       -3.370955   1.000000
   46       -3.138702   1.000000
   47       -3.070955   1.000000
   48       -2.892941   1.000000
   49       -2.888419   1.000000
   50       -2.803692   1.000000
   51       -2.663729   1.000000
   52       -2.378838   1.000000
   53       -2.278098   1.000000
   54       -2.245153   1.000000
   55       -2.070914   1.000000
   56       -2.036062   1.000000
   57       -1.770426   1.000000
   58       -1.755718   1.000000
   59       -1.725406   1.000000
   60       -1.658065   1.000000
   61       -1.549617   1.000000
   62       -1.534685   1.000000
   63       -1.221628   1.001176
   64       -1.197133   1.001995
   65       -1.102140   1.010924
   66       -1.034081   1.024973
   67       -1.033827   1.025032
   68       -0.973349   1.035321
   69       -0.926963   1.027370
   70       -0.875692   0.981071
   71       -0.804994   0.818872
   72       -0.720001   0.490172
   73       -0.714147   0.465435
   74       -0.645433   0.199773
   75       -0.637386   0.174021
   76       -0.610953   0.100288
   77       -0.571217   0.022220
   78       -0.441596  -0.031638
   79       -0.428311  -0.028964
   80       -0.394435  -0.021253
   81       -0.262044  -0.002685
   82       -0.175297  -0.000380
   83       -0.157396  -0.000241
   84       -0.029529  -0.000006
   85        0.043071  -0.000000
   86        0.180488  -0.000000
   87        0.451005  -0.000000
   88        0.454984  -0.000000
   89        1.257986  -0.000000
   90        1.459310  -0.000000
   91        1.674068  -0.000000
   92        1.684821  -0.000000
   93        1.761037  -0.000000
   94        1.837284  -0.000000
   95        2.470475  -0.000000
   96        2.649038  -0.000000
 
  0.0000000E+00  0.6250000E-01  0.0000000E+00  0.2083333E-01
    1      -10.076492   1.000000
    2       -8.849993   1.000000
    3       -7.787867   1.000000
    4       -7.623669   1.000000
    5       -7.365215   1.000000
    6       -7.325431   1.000000
    7       -7.310109   1.000000
    8       -7.205567   1.000000
    9       -7.172756   1.000000
   10       -7.147860   1.000000
   11       -6.802727   1.000000
   12       -6.726448   1.000000
   13       -6.712904   1.000000
   14       -6.700500   1.000000
   15       -6.688661   1.000000
   16       -6.503858   1.000000
   17       -6.462499   1.000000
   18       -6.420558   1.000000
   19       -6.377522   1.000000
   20       -5.943108   1.000000
   21       -5.708480   1.000000
   22       -5.614693   1.000000
   23       -5.558326   1.000000
   24       -4.848207   1.000000
   25       -4.788835   1.000000
   26       -4.741461   1.000000
   27       -4.580280   1.000000
   28       -4.557743   1.000000
   29       -4.548883   1.000000
   30       -4.507821   1.000000
   31       -4.289882   1.000000
   32       -4.250741   1.000000
   33       -4.208365   1.000000
   34       -4.094882   1.000000
   35       -4.078734   1.000000
   36       -3.988932   1.000000
   37       -3.947444   1.000000
   38       -3.903363   1.000000
   39       -3.850062   1.000000
   40       -3.811865   1.000000
   41       -3.744570   1.000000
   42       -3.601268   1.000000
   43       -3.568733   1.000000
   44       -3.390650   1.000000
   45       -3.372224   1.000000
   46       -3.137063   1.000000
   47       -3.091023   1.000000
   48       -2.893993   1.000000
   49       -2.866397   1.000000
   50       -2.788037   1.000000
   51       -2.688071   1.000000
   52       -2.389868   1.000000
   53       -2.286033   1.000000
   54       -2.236382   1.000000
   55       -2.074830   1.000000
   56       -2.021581   1.000000
   57       -1.792362   1.000000
   58       -1.737816   1.000000
   59       -1.718315   1.000000
   60       -1.647230   1.000000
   61       -1.544062   1.000000
   62       -1.520362   1.000000
   63       -1.278658   1.000300
   64       -1.154059   1.004632
   65       -1.096710   1.011824
   66       -1.060342   1.018981
   67       -1.037580   1.024164
   68       -0.971399   1.035394
   69       -0.911764   1.018745
   70       -0.876289   0.981920
   71       -0.791040   0.772610
   72       -0.748694   0.610514
   73       -0.702132   0.415043
   74       -0.659889   0.249546
   75       -0.635733   0.168915
   76       -0.612966   0.105294
   77       -0.568353   0.018072
   78       -0.441422  -0.031606
   79       -0.429827  -0.029288
   80       -0.402122  -0.023019
   81       -0.264040  -0.002793
   82       -0.189831  -0.000544
   83       -0.146879  -0.000183
   84       -0.012393  -0.000003
   85        0.067293  -0.000000
   86        0.172553  -0.000000
   87        0.407468  -0.000000
   88        0.478931  -0.000000
   89        1.261393  -0.000000
   90        1.444530  -0.000000
   91        1.683077  -0.000000
   92        1.695582  -0.000000
   93        1.787279  -0.000000
   94        1.803529  -0.000000
   95        2.474771  -0.000000
   96        2.645852  -0.000000
 
  0.1875000E+00  0.6250000E-01  0.0000000E+00  0.2083333E-01
    1       -9.872955   1.000000
    2       -8.650377   1.000000
    3       -7.584928   1.000000
    4       -7.428532   1.000000
    5       -7.335658   1.000000
    6       -7.253976   1.000000
    7       -7.138001   1.000000
    8       -7.114035   1.000000
    9       -7.057785   1.000000
   10       -6.984689   1.000000
   11       -6.710055   1.000000
   12       -6.637163   1.000000
   13       -6.610878   1.000000
   14       -6.602000   1.000000
   15       -6.560501   1.000000
   16       -6.397515   1.000000
   17       -6.330135   1.000000
   18       -6.294819   1.000000
   19       -6.202490   1.000000
   20       -5.897560   1.000000
   21       -5.646671   1.000000
   22       -5.560147   1.000000
   23       -5.505028   1.000000
   24       -4.876209   1.000000
   25       -4.802890   1.000000
   26       -4.753957   1.000000
   27       -4.585766   1.000000
   28       -4.534396   1.000000
   29       -4.500524   1.000000
   30       -4.477718   1.000000
   31       -4.424760   1.000000
   32       -4.349608   1.000000
   33       -4.084602   1.000000
   34       -4.059031   1.000000
   35       -4.049072   1.000000
   36       -3.993180   1.000000
   37       -3.930058   1.000000
   38       -3.890696   1.000000
   39       -3.881118   1.000000
   40       -3.817736   1.000000
   41       -3.771499   1.000000
   42       -3.667507   1.000000
   43       -3.548762   1.000000
   44       -3.522160   1.000000
   45       -3.432554   1.000000
   46       -3.413520   1.000000
   47       -3.249568   1.000000
   48       -3.104357   1.000000
   49       -2.911552   1.000000
   50       -2.858459   1.000000
   51       -2.701117   1.000000
   52       -2.603717   1.000000
   53       -2.390649   1.000000
   54       -2.365439   1.000000
   55       -2.208057   1.000000
   56       -2.097990   1.000000
   57       -1.953646   1.000000
   58       -1.919875   1.000000
   59       -1.836044   1.000000
   60       -1.789629   1.000000
   61       -1.728577   1.000000
   62       -1.694176   1.000000
   63       -1.614935   1.000000
   64       -1.581861   1.000000
   65       -1.480556   1.000001
   66       -1.420183   1.000005
   67       -1.219932   1.001221
   68       -1.198127   1.001954
   69       -1.092195   1.012607
   70       -1.062268   1.018560
   71       -1.012065   1.029865
   72       -0.955581   1.034888
   73       -0.927809   1.027744
   74       -0.864567   0.963728
   75       -0.818534   0.859514
   76       -0.763080   0.668549
   77       -0.723780   0.506160
   78       -0.692013   0.373363
   79       -0.669062   0.283247
   80       -0.579346   0.035036
   81       -0.481872  -0.035378
   82       -0.476386  -0.035454
   83       -0.401436  -0.022861
   84       -0.291482  -0.004708
   85       -0.097530  -0.000046
   86        0.255200  -0.000000
   87        0.322110  -0.000000
   88        0.597569  -0.000000
   89        0.892560  -0.000000
   90        1.075639  -0.000000
   91        1.338662  -0.000000
   92        1.616587  -0.000000
   93        2.207993  -0.000000
   94        2.488159  -0.000000
   95        2.784163  -0.000000
   96        3.106977  -0.000000
 
  0.1250000E+00  0.1875000E+00  0.0000000E+00  0.2083333E-01
    1       -9.872958   1.000000
    2       -8.650457   1.000000
    3       -7.585313   1.000000
    4       -7.428654   1.000000
    5       -7.334818   1.000000
    6       -7.253658   1.000000
    7       -7.138266   1.000000
    8       -7.116180   1.000000
    9       -7.053199   1.000000
   10       -6.987932   1.000000
   11       -6.708238   1.000000
   12       -6.638814   1.000000
   13       -6.610795   1.000000
   14       -6.601864   1.000000
   15       -6.555492   1.000000
   16       -6.403289   1.000000
   17       -6.330645   1.000000
   18       -6.285521   1.000000
   19       -6.212533   1.000000
   20       -5.895721   1.000000
   21       -5.649311   1.000000
   22       -5.558539   1.000000
   23       -5.501956   1.000000
   24       -4.880201   1.000000
   25       -4.812956   1.000000
   26       -4.743795   1.000000
   27       -4.584505   1.000000
   28       -4.532168   1.000000
   29       -4.495634   1.000000
   30       -4.476764   1.000000
   31       -4.434531   1.000000
   32       -4.341999   1.000000
   33       -4.079311   1.000000
   34       -4.062072   1.000000
   35       -4.058077   1.000000
   36       -3.988195   1.000000
   37       -3.929181   1.000000
   38       -3.898532   1.000000
   39       -3.851868   1.000000
   40       -3.808383   1.000000
   41       -3.793506   1.000000
   42       -3.675363   1.000000
   43       -3.563784   1.000000
   44       -3.516636   1.000000
   45       -3.431653   1.000000
   46       -3.414489   1.000000
   47       -3.232861   1.000000
   48       -3.113939   1.000000
   49       -2.922152   1.000000
   50       -2.867536   1.000000
   51       -2.662961   1.000000
   52       -2.609906   1.000000
   53       -2.392634   1.000000
   54       -2.367852   1.000000
   55       -2.196451   1.000000
   56       -2.111983   1.000000
   57       -1.959180   1.000000
   58       -1.903860   1.000000
   59       -1.872154   1.000000
   60       -1.787805   1.000000
   61       -1.740499   1.000000
   62       -1.699701   1.000000
   63       -1.616420   1.000000
   64       -1.561762   1.000000
   65       -1.527274   1.000000
   66       -1.388948   1.000013
   67       -1.244675   1.000693
   68       -1.174019   1.003180
   69       -1.096434   1.011871
   70       -1.063425   1.018308
   71       -1.007642   1.030760
   72       -0.946385   1.033529
   73       -0.913726   1.020072
   74       -0.865219   0.964826
   75       -0.804735   0.818052
   76       -0.781666   0.739261
   77       -0.726176   0.516296
   78       -0.688067   0.357381
   79       -0.640456   0.183673
   80       -0.583820   0.042766
   81       -0.507825  -0.031107
   82       -0.442621  -0.031826
   83       -0.379727  -0.017985
   84       -0.328076  -0.008763
   85       -0.103606  -0.000055
   86        0.254468  -0.000000
   87        0.331633  -0.000000
   88        0.605859  -0.000000
   89        0.887214  -0.000000
   90        1.079863  -0.000000
   91        1.345910  -0.000000
   92        1.589185  -0.000000
   93        2.213274  -0.000000
   94        2.475326  -0.000000
   95        2.798682  -0.000000
   96        3.107852  -0.000000
 
 -0.6250000E-01  0.1250000E+00  0.0000000E+00  0.2083333E-01
    1       -9.872951   1.000000
    2       -8.650265   1.000000
    3       -7.584472   1.000000
    4       -7.428500   1.000000
    5       -7.335489   1.000000
    6       -7.255302   1.000000
    7       -7.137723   1.000000
    8       -7.110948   1.000000
    9       -7.063418   1.000000
   10       -6.981974   1.000000
   11       -6.702240   1.000000
   12       -6.646349   1.000000
   13       -6.606454   1.000000
   14       -6.601923   1.000000
   15       -6.572510   1.000000
   16       -6.390247   1.000000
   17       -6.345306   1.000000
   18       -6.279802   1.000000
   19       -6.197105   1.000000
   20       -5.900120   1.000000
   21       -5.643943   1.000000
   22       -5.561530   1.000000
   23       -5.510002   1.000000
   24       -4.845908   1.000000
   25       -4.823641   1.000000
   26       -4.757485   1.000000
   27       -4.585310   1.000000
   28       -4.544434   1.000000
   29       -4.494175   1.000000
   30       -4.485607   1.000000
   31       -4.420715   1.000000
   32       -4.350558   1.000000
   33       -4.079436   1.000000
   34       -4.065754   1.000000
   35       -4.051026   1.000000
   36       -3.996336   1.000000
   37       -3.946546   1.000000
   38       -3.898332   1.000000
   39       -3.883183   1.000000
   40       -3.791135   1.000000
   41       -3.768309   1.000000
   42       -3.660663   1.000000
   43       -3.539112   1.000000
   44       -3.530884   1.000000
   45       -3.422348   1.000000
   46       -3.406832   1.000000
   47       -3.292304   1.000000
   48       -3.077543   1.000000
   49       -2.925045   1.000000
   50       -2.819017   1.000000
   51       -2.730701   1.000000
   52       -2.631890   1.000000
   53       -2.413277   1.000000
   54       -2.317793   1.000000
   55       -2.228009   1.000000
   56       -2.049280   1.000000
   57       -1.941978   1.000000
   58       -1.915239   1.000000
   59       -1.870409   1.000000
   60       -1.785471   1.000000
   61       -1.730068   1.000000
   62       -1.670504   1.000000
   63       -1.613459   1.000000
   64       -1.540475   1.000000
   65       -1.499037   1.000000
   66       -1.384892   1.000015
   67       -1.276260   1.000319
   68       -1.225058   1.001089
   69       -1.102559   1.010857
   70       -1.060437   1.018960
   71       -1.001425   1.031935
   72       -0.952775   1.034566
   73       -0.921964   1.024940
   74       -0.859912   0.955592
   75       -0.797844   0.795697
   76       -0.766085   0.680344
   77       -0.746704   0.602315
   78       -0.710764   0.451175
   79       -0.637294   0.173735
   80       -0.588856   0.052051
   81       -0.523790  -0.024349
   82       -0.491024  -0.034671
   83       -0.374639  -0.016906
   84       -0.278575  -0.003704
   85       -0.108747  -0.000064
   86        0.248840  -0.000000
   87        0.321221  -0.000000
   88        0.600628  -0.000000
   89        0.887895  -0.000000
   90        1.073595  -0.000000
   91        1.339923  -0.000000
   92        1.623028  -0.000000
   93        2.210039  -0.000000
   94        2.495589  -0.000000
   95        2.786755  -0.000000
   96        3.102536  -0.000000
 
  0.3125000E+00  0.6250000E-01  0.0000000E+00  0.2083333E-01
    1       -9.420340   1.000000
    2       -8.219038   1.000000
    3       -7.432936   1.000000
    4       -7.155416   1.000000
    5       -7.037104   1.000000
    6       -7.006264   1.000000
    7       -6.986595   1.000000
    8       -6.805320   1.000000
    9       -6.769475   1.000000
   10       -6.675111   1.000000
   11       -6.594911   1.000000
   12       -6.453813   1.000000
   13       -6.392887   1.000000
   14       -6.340314   1.000000
   15       -6.265565   1.000000
   16       -6.205160   1.000000
   17       -6.042148   1.000000
   18       -5.992107   1.000000
   19       -5.831926   1.000000
   20       -5.762894   1.000000
   21       -5.503819   1.000000
   22       -5.435232   1.000000
   23       -5.397944   1.000000
   24       -5.004298   1.000000
   25       -4.868261   1.000000
   26       -4.839472   1.000000
   27       -4.757775   1.000000
   28       -4.651915   1.000000
   29       -4.611488   1.000000
   30       -4.443293   1.000000
   31       -4.382508   1.000000
   32       -4.308936   1.000000
   33       -4.201667   1.000000
   34       -4.160685   1.000000
   35       -4.115362   1.000000
   36       -4.049921   1.000000
   37       -3.990971   1.000000
   38       -3.873686   1.000000
   39       -3.842523   1.000000
   40       -3.783965   1.000000
   41       -3.746230   1.000000
   42       -3.705442   1.000000
   43       -3.687101   1.000000
   44       -3.658538   1.000000
   45       -3.616043   1.000000
   46       -3.502971   1.000000
   47       -3.409242   1.000000
   48       -3.276570   1.000000
   49       -3.134200   1.000000
   50       -2.994731   1.000000
   51       -2.916742   1.000000
   52       -2.815226   1.000000
   53       -2.736239   1.000000
   54       -2.680722   1.000000
   55       -2.606940   1.000000
   56       -2.545546   1.000000
   57       -2.474218   1.000000
   58       -2.401592   1.000000
   59       -2.360122   1.000000
   60       -2.273273   1.000000
   61       -2.255138   1.000000
   62       -2.131571   1.000000
   63       -2.054121   1.000000
   64       -1.914389   1.000000
   65       -1.866543   1.000000
   66       -1.791270   1.000000
   67       -1.743363   1.000000
   68       -1.607275   1.000000
   69       -1.491976   1.000000
   70       -1.453001   1.000002
   71       -1.410096   1.000007
   72       -1.338572   1.000059
   73       -1.229239   1.000991
   74       -1.185534   1.002531
   75       -1.163256   1.003907
   76       -1.103577   1.010694
   77       -1.019618   1.028250
   78       -0.929615   1.028509
   79       -0.837263   0.908337
   80       -0.780113   0.733576
   81       -0.712546   0.458682
   82       -0.649665   0.213891
   83       -0.558428   0.005135
   84       -0.480773  -0.035412
   85       -0.428929  -0.029096
   86       -0.031452  -0.000006
   87        0.345771  -0.000000
   88        0.614003  -0.000000
   89        1.001534  -0.000000
   90        1.496027  -0.000000
   91        1.768681  -0.000000
   92        1.991645  -0.000000
   93        2.318693  -0.000000
   94        2.464832  -0.000000
   95        3.207880  -0.000000
   96        3.593731  -0.000000
 
  0.2500000E+00  0.3125000E+00  0.0000000E+00  0.2083333E-01
    1       -9.420395   1.000000
    2       -8.219985   1.000000
    3       -7.431387   1.000000
    4       -7.161013   1.000000
    5       -7.025819   1.000000
    6       -7.006337   1.000000
    7       -6.991001   1.000000
    8       -6.807912   1.000000
    9       -6.762072   1.000000
   10       -6.686236   1.000000
   11       -6.580184   1.000000
   12       -6.456857   1.000000
   13       -6.391084   1.000000
   14       -6.355038   1.000000
   15       -6.250141   1.000000
   16       -6.205286   1.000000
   17       -6.071377   1.000000
   18       -5.952334   1.000000
   19       -5.872084   1.000000
   20       -5.740764   1.000000
   21       -5.509770   1.000000
   22       -5.439405   1.000000
   23       -5.377842   1.000000
   24       -5.002881   1.000000
   25       -4.925741   1.000000
   26       -4.806504   1.000000
   27       -4.729039   1.000000
   28       -4.672984   1.000000
   29       -4.616448   1.000000
   30       -4.428017   1.000000
   31       -4.388975   1.000000
   32       -4.289143   1.000000
   33       -4.211093   1.000000
   34       -4.153189   1.000000
   35       -4.123107   1.000000
   36       -4.036274   1.000000
   37       -3.966212   1.000000
   38       -3.890343   1.000000
   39       -3.825316   1.000000
   40       -3.780885   1.000000
   41       -3.758570   1.000000
   42       -3.731958   1.000000
   43       -3.702601   1.000000
   44       -3.669127   1.000000
   45       -3.571319   1.000000
   46       -3.506122   1.000000
   47       -3.418160   1.000000
   48       -3.286850   1.000000
   49       -3.138031   1.000000
   50       -2.951591   1.000000
   51       -2.934511   1.000000
   52       -2.817946   1.000000
   53       -2.753560   1.000000
   54       -2.674943   1.000000
   55       -2.622510   1.000000
   56       -2.533351   1.000000
   57       -2.485941   1.000000
   58       -2.407986   1.000000
   59       -2.366639   1.000000
   60       -2.268616   1.000000
   61       -2.254931   1.000000
   62       -2.134984   1.000000
   63       -2.064955   1.000000
   64       -1.960672   1.000000
   65       -1.898309   1.000000
   66       -1.806152   1.000000
   67       -1.704048   1.000000
   68       -1.595957   1.000000
   69       -1.513917   1.000000
   70       -1.443158   1.000002
   71       -1.415592   1.000005
   72       -1.385342   1.000014
   73       -1.223640   1.001124
   74       -1.199123   1.001914
   75       -1.154938   1.004558
   76       -1.043236   1.022855
   77       -1.013746   1.029515
   78       -0.919176   1.023416
   79       -0.813678   0.845441
   80       -0.771339   0.700654
   81       -0.721183   0.495174
   82       -0.635026   0.166751
   83       -0.537321  -0.015494
   84       -0.450217  -0.033112
   85       -0.418084  -0.026697
   86       -0.041104  -0.000008
   87        0.336013  -0.000000
   88        0.617494  -0.000000
   89        0.983682  -0.000000
   90        1.470154  -0.000000
   91        1.797281  -0.000000
   92        1.951573  -0.000000
   93        2.352214  -0.000000
   94        2.458627  -0.000000
   95        3.176801  -0.000000
   96        3.584593  -0.000000
 
 -0.6250000E-01  0.2500000E+00  0.0000000E+00  0.2083333E-01
    1       -9.420318   1.000000
    2       -8.218735   1.000000
    3       -7.433089   1.000000
    4       -7.154829   1.000000
    5       -7.037758   1.000000
    6       -7.006915   1.000000
    7       -6.984066   1.000000
    8       -6.807661   1.000000
    9       -6.769892   1.000000
   10       -6.679693   1.000000
   11       -6.588330   1.000000
   12       -6.451694   1.000000
   13       -6.380705   1.000000
   14       -6.353662   1.000000
   15       -6.285491   1.000000
   16       -6.203198   1.000000
   17       -6.037804   1.000000
   18       -5.968451   1.000000
   19       -5.832655   1.000000
   20       -5.774761   1.000000
   21       -5.508364   1.000000
   22       -5.425214   1.000000
   23       -5.407146   1.000000
   24       -4.977714   1.000000
   25       -4.905248   1.000000
   26       -4.823100   1.000000
   27       -4.750373   1.000000
   28       -4.663743   1.000000
   29       -4.613506   1.000000
   30       -4.435574   1.000000
   31       -4.368618   1.000000
   32       -4.323267   1.000000
   33       -4.216807   1.000000
   34       -4.165372   1.000000
   35       -4.112813   1.000000
   36       -4.047237   1.000000
   37       -4.001730   1.000000
   38       -3.864810   1.000000
   39       -3.848212   1.000000
   40       -3.768373   1.000000
   41       -3.748811   1.000000
   42       -3.719955   1.000000
   43       -3.701117   1.000000
   44       -3.654789   1.000000
   45       -3.595413   1.000000
   46       -3.506880   1.000000
   47       -3.423218   1.000000
   48       -3.243666   1.000000
   49       -3.132565   1.000000
   50       -3.026270   1.000000
   51       -2.925955   1.000000
   52       -2.820311   1.000000
   53       -2.709959   1.000000
   54       -2.669862   1.000000
   55       -2.611521   1.000000
   56       -2.525697   1.000000
   57       -2.478837   1.000000
   58       -2.402932   1.000000
   59       -2.345329   1.000000
   60       -2.294453   1.000000
   61       -2.244720   1.000000
   62       -2.094925   1.000000
   63       -2.035208   1.000000
   64       -1.951234   1.000000
   65       -1.863267   1.000000
   66       -1.778861   1.000000
   67       -1.714101   1.000000
   68       -1.622309   1.000000
   69       -1.501233   1.000000
   70       -1.448317   1.000002
   71       -1.416127   1.000005
   72       -1.317139   1.000108
   73       -1.248256   1.000636
   74       -1.207536   1.001601
   75       -1.186742   1.002470
   76       -1.114701   1.009025
   77       -1.016353   1.028960
   78       -0.934330   1.030288
   79       -0.844579   0.925011
   80       -0.784228   0.748548
   81       -0.690291   0.366368
   82       -0.655355   0.233475
   83       -0.569256   0.019359
   84       -0.483965  -0.035283
   85       -0.423780  -0.027975
   86       -0.022801  -0.000004
   87        0.342149  -0.000000
   88        0.611502  -0.000000
   89        0.999786  -0.000000
   90        1.492649  -0.000000
   91        1.770075  -0.000000
   92        1.979272  -0.000000
   93        2.325861  -0.000000
   94        2.482694  -0.000000
   95        3.208058  -0.000000
   96        3.595508  -0.000000
 
  0.4375000E+00  0.6250000E-01  0.0000000E+00  0.2083333E-01
    1       -8.782651   1.000000
    2       -7.797022   1.000000
    3       -7.664678   1.000000
    4       -7.077500   1.000000
    5       -6.705804   1.000000
    6       -6.666092   1.000000
    7       -6.547412   1.000000
    8       -6.484815   1.000000
    9       -6.451047   1.000000
   10       -6.409935   1.000000
   11       -6.370138   1.000000
   12       -6.198393   1.000000
   13       -6.073746   1.000000
   14       -6.019419   1.000000
   15       -5.965175   1.000000
   16       -5.945207   1.000000
   17       -5.765514   1.000000
   18       -5.690523   1.000000
   19       -5.570647   1.000000
   20       -5.416549   1.000000
   21       -5.338041   1.000000
   22       -5.279977   1.000000
   23       -5.195739   1.000000
   24       -5.142599   1.000000
   25       -5.073425   1.000000
   26       -4.945234   1.000000
   27       -4.888450   1.000000
   28       -4.825536   1.000000
   29       -4.681440   1.000000
   30       -4.594173   1.000000
   31       -4.573562   1.000000
   32       -4.515670   1.000000
   33       -4.409289   1.000000
   34       -4.358280   1.000000
   35       -4.257132   1.000000
   36       -4.208459   1.000000
   37       -4.142115   1.000000
   38       -4.018875   1.000000
   39       -3.963934   1.000000
   40       -3.885506   1.000000
   41       -3.801268   1.000000
   42       -3.732852   1.000000
   43       -3.674002   1.000000
   44       -3.636550   1.000000
   45       -3.587371   1.000000
   46       -3.547119   1.000000
   47       -3.482504   1.000000
   48       -3.446240   1.000000
   49       -3.390422   1.000000
   50       -3.301808   1.000000
   51       -3.215493   1.000000
   52       -3.193363   1.000000
   53       -3.141404   1.000000
   54       -3.063940   1.000000
   55       -2.951914   1.000000
   56       -2.922688   1.000000
   57       -2.862361   1.000000
   58       -2.755023   1.000000
   59       -2.679076   1.000000
   60       -2.633078   1.000000
   61       -2.451256   1.000000
   62       -2.396228   1.000000
   63       -2.301017   1.000000
   64       -2.246229   1.000000
   65       -2.209250   1.000000
   66       -2.126109   1.000000
   67       -2.045289   1.000000
   68       -2.016727   1.000000
   69       -1.878357   1.000000
   70       -1.847885   1.000000
   71       -1.799567   1.000000
   72       -1.730570   1.000000
   73       -1.582564   1.000000
   74       -1.422080   1.000004
   75       -1.351907   1.000040
   76       -1.287240   1.000241
   77       -1.215206   1.001356
   78       -1.155636   1.004500
   79       -0.875601   0.980942
   80       -0.831319   0.893792
   81       -0.752475   0.625988
   82       -0.702574   0.416883
   83       -0.639177   0.179626
   84       -0.497320  -0.033709
   85       -0.424651  -0.028167
   86       -0.266075  -0.002908
   87        0.618903  -0.000000
   88        0.759337  -0.000000
   89        1.144115  -0.000000
   90        1.648550  -0.000000
   91        1.853730  -0.000000
   92        2.126635  -0.000000
   93        2.474782  -0.000000
   94        2.680991  -0.000000
   95        3.483651  -0.000000
   96        3.807684  -0.000000
 
  0.3750000E+00  0.4375000E+00  0.0000000E+00  0.2083333E-01
    1       -8.783128   1.000000
    2       -7.803990   1.000000
    3       -7.659046   1.000000
    4       -7.073578   1.000000
    5       -6.710396   1.000000
    6       -6.655703   1.000000
    7       -6.530257   1.000000
    8       -6.476079   1.000000
    9       -6.453502   1.000000
   10       -6.421990   1.000000
   11       -6.389561   1.000000
   12       -6.194267   1.000000
   13       -6.081657   1.000000
   14       -6.045076   1.000000
   15       -5.960864   1.000000
   16       -5.932955   1.000000
   17       -5.785521   1.000000
   18       -5.609050   1.000000
   19       -5.576936   1.000000
   20       -5.457309   1.000000