<?xml version="1.0" encoding="ISO-8859-1"?>
<modeling>
 <generator>
  <i name="program" type="string">vasp </i>
  <i name="version" type="string">5.4.4.18Apr17-6-g9f103f2a35  </i>
  <i name="subversion" type="string">(build Apr 28 2017 10:53:45) complex            parallel </i>
  <i name="platform" type="string">LinuxIFC </i>
  <i name="date" type="string">2020 02 16 </i>
  <i name="time" type="string">21:23:47 </i>
 </generator>
 <incar>
  <i type="string" name="PREC">normal</i>
  <i type="int" name="ISPIN">     1</i>
  <i type="int" name="IBRION">     2</i>
  <i name="EDIFF">      0.00001000</i>
  <i name="EDIFFG">     -0.05000000</i>
  <i type="int" name="NSW">     0</i>
  <i name="ENCUT">    350.00000000</i>
  <i type="logical" name="LWAVE"> F  </i>
  <i type="logical" name="LCHARG"> F  </i>
  <v type="int" name="KPOINT_BSE">    -1     0     0     0</v>
  <i type="string" name="GGA"> PE</i>
  <i type="int" name="IDIPOL">     3</i>
 </incar>
 <structure name="primitive_cell" >
  <crystal>
   <varray name="basis" >
    <v>       5.55785930       0.00000000       0.00000000 </v>
    <v>       2.77892965       4.81324734       0.00000000 </v>
    <v>       0.00000000       0.00000000      30.80695967 </v>
   </varray>
   <i name="volume">    824.12780743 </i>
   <varray name="rec_basis" >
    <v>       0.17992539      -0.10387997       0.00000000 </v>
    <v>       0.00000000       0.20775994       0.00000000 </v>
    <v>       0.00000000       0.00000000       0.03246020 </v>
   </varray>
  </crystal>
  <varray name="positions" >
   <v>       0.00000000       0.00000000       0.38952237 </v>
   <v>       0.00000000      -0.50000000       0.38952237 </v>
   <v>      -0.50000000      -0.50000000       0.38952237 </v>
   <v>      -0.50000000       0.00000000       0.38952237 </v>
   <v>       0.16666667       0.16666667       0.46468540 </v>
   <v>       0.16666667      -0.33333333       0.46468540 </v>
   <v>      -0.33333333       0.16666667       0.46468540 </v>
   <v>      -0.33333333      -0.33333333       0.46468540 </v>
   <v>      -0.16666667      -0.16666667      -0.46079704 </v>
   <v>      -0.16666667       0.33333333      -0.46079704 </v>
   <v>       0.33333333      -0.16666667      -0.46079704 </v>
   <v>       0.33333333       0.33333333      -0.46079704 </v>
   <v>       0.00000000       0.00000000      -0.38513957 </v>
   <v>      -0.50000000       0.00000000      -0.38513957 </v>
   <v>       0.00000000      -0.50000000      -0.38513957 </v>
   <v>      -0.50000000      -0.50000000      -0.38513957 </v>
  </varray>
 </structure>
 <varray name="primitive_index" >
  <v type="int" >        1 </v>
  <v type="int" >        3 </v>
  <v type="int" >        4 </v>
  <v type="int" >        2 </v>
  <v type="int" >        5 </v>
  <v type="int" >        7 </v>
  <v type="int" >        6 </v>
  <v type="int" >        8 </v>
  <v type="int" >       10 </v>
  <v type="int" >        9 </v>
  <v type="int" >       11 </v>
  <v type="int" >       16 </v>
  <v type="int" >       12 </v>
  <v type="int" >       13 </v>
  <v type="int" >       14 </v>
  <v type="int" >       15 </v>
 </varray>
 <kpoints>
  <generation param="Monkhorst-Pack">
   <v type="int" name="divisions">       8        8        1 </v>
   <v name="usershift">      0.00000000       0.00000000       0.00000000 </v>
   <v name="genvec1">      0.12500000       0.00000000       0.00000000 </v>
   <v name="genvec2">      0.00000000       0.12500000       0.00000000 </v>
   <v name="genvec3">      0.00000000       0.00000000       1.00000000 </v>
   <v name="shift">      0.50000000       0.50000000       0.00000000 </v>
  </generation>
  <varray name="kpointlist" >
   <v>       0.06250000       0.06250000       0.00000000 </v>
   <v>       0.18750000       0.06250000       0.00000000 </v>
   <v>       0.31250000       0.06250000       0.00000000 </v>
   <v>       0.43750000       0.06250000       0.00000000 </v>
   <v>      -0.43750000       0.06250000       0.00000000 </v>
   <v>      -0.31250000       0.06250000       0.00000000 </v>
   <v>      -0.18750000       0.06250000       0.00000000 </v>
   <v>      -0.06250000       0.06250000       0.00000000 </v>
   <v>       0.18750000       0.18750000       0.00000000 </v>
   <v>       0.31250000       0.18750000       0.00000000 </v>
   <v>       0.43750000       0.18750000       0.00000000 </v>
   <v>      -0.43750000       0.18750000       0.00000000 </v>
   <v>      -0.31250000       0.18750000       0.00000000 </v>
   <v>      -0.18750000       0.18750000       0.00000000 </v>
   <v>       0.31250000       0.31250000       0.00000000 </v>
   <v>       0.43750000       0.31250000       0.00000000 </v>
   <v>      -0.43750000       0.31250000       0.00000000 </v>
   <v>      -0.31250000       0.31250000       0.00000000 </v>
   <v>       0.43750000       0.43750000       0.00000000 </v>
   <v>      -0.43750000       0.43750000       0.00000000 </v>
  </varray>
  <varray name="weights" >
   <v>       0.03125000 </v>
   <v>       0.06250000 </v>
   <v>       0.06250000 </v>
   <v>       0.06250000 </v>
   <v>       0.06250000 </v>
   <v>       0.06250000 </v>
   <v>       0.06250000 </v>
   <v>       0.03125000 </v>
   <v>       0.03125000 </v>
   <v>       0.06250000 </v>
   <v>       0.06250000 </v>
   <v>       0.06250000 </v>
   <v>       0.06250000 </v>
   <v>       0.03125000 </v>
   <v>       0.03125000 </v>
   <v>       0.06250000 </v>
   <v>       0.06250000 </v>
   <v>       0.03125000 </v>
   <v>       0.03125000 </v>
   <v>       0.03125000 </v>
  </varray>
 </kpoints>
 <parameters>
  <separator name="general" >
   <i type="string" name="SYSTEM">unknown system</i>
   <i type="logical" name="LCOMPAT"> F  </i>
  </separator>
  <separator name="electronic" >
   <i type="string" name="PREC">normal</i>
   <i name="ENMAX">    350.00000000</i>
   <i name="ENAUG">    358.96600000</i>
   <i name="EDIFF">      0.00001000</i>
   <i type="int" name="IALGO">    38</i>
   <i type="int" name="IWAVPR">    10</i>
   <i type="int" name="NBANDS">    96</i>
   <i name="NELECT">    160.00000000</i>
   <i type="int" name="TURBO">     0</i>
   <i type="int" name="IRESTART">     0</i>
   <i type="int" name="NREBOOT">     0</i>
   <i type="int" name="NMIN">     0</i>
   <i name="EREF">      0.00000000</i>
   <separator name="electronic smearing" >
    <i type="int" name="ISMEAR">     1</i>
    <i name="SIGMA">      0.20000000</i>
    <i name="KSPACING">      0.50000000</i>
    <i type="logical" name="KGAMMA"> T  </i>
   </separator>
   <separator name="electronic projectors" >
    <i type="logical" name="LREAL"> F  </i>
    <v name="ROPT">      0.00000000      0.00000000      0.00000000</v>
    <i type="int" name="LMAXPAW">  -100</i>
    <i type="int" name="LMAXMIX">     2</i>
    <i type="logical" name="NLSPLINE"> F  </i>
   </separator>
   <separator name="electronic startup" >
    <i type="int" name="ISTART">     0</i>
    <i type="int" name="ICHARG">     2</i>
    <i type="int" name="INIWAV">     1</i>
   </separator>
   <separator name="electronic spin" >
    <i type="int" name="ISPIN">     1</i>
    <i type="logical" name="LNONCOLLINEAR"> F  </i>
    <v name="MAGMOM">      1.00000000      1.00000000      1.00000000      1.00000000      1.00000000      1.00000000      1.00000000      1.00000000      1.00000000      1.00000000      1.00000000      1.00000000      1.00000000      1.00000000      1.00000000      1.00000000</v>
    <i name="NUPDOWN">     -1.00000000</i>
    <i type="logical" name="LSORBIT"> F  </i>
    <v name="SAXIS">      0.00000000      0.00000000      1.00000000</v>
    <i type="logical" name="LSPIRAL"> F  </i>
    <v name="QSPIRAL">      0.00000000      0.00000000      0.00000000</v>
    <i type="logical" name="LZEROZ"> F  </i>
   </separator>
   <separator name="electronic exchange-correlation" >
    <i type="logical" name="LASPH"> F  </i>
    <i type="logical" name="LMETAGGA"> F  </i>
   </separator>
   <separator name="electronic convergence" >
    <i type="int" name="NELM">    60</i>
    <i type="int" name="NELMDL">    -5</i>
    <i type="int" name="NELMIN">     2</i>
    <i name="ENINI">    350.00000000</i>
    <separator name="electronic convergence detail" >
     <i type="logical" name="LDIAG"> T  </i>
     <i type="logical" name="LSUBROT"> F  </i>
     <i name="WEIMIN">      0.00000000</i>
     <i name="EBREAK">      0.00000003</i>
     <i name="DEPER">      0.30000000</i>
     <i type="int" name="NRMM">     4</i>
     <i name="TIME">      0.40000000</i>
    </separator>
   </separator>
   <separator name="electronic mixer" >
    <i name="AMIX">      0.40000000</i>
    <i name="BMIX">      1.00000000</i>
    <i name="AMIN">      0.10000000</i>
    <i name="AMIX_MAG">      1.60000000</i>
    <i name="BMIX_MAG">      1.00000000</i>
    <separator name="electronic mixer details" >
     <i type="int" name="IMIX">     4</i>
     <i type="logical" name="MIXFIRST"> F  </i>
     <i type="int" name="MAXMIX">   -45</i>
     <i name="WC">    100.00000000</i>
     <i type="int" name="INIMIX">     1</i>
     <i type="int" name="MIXPRE">     1</i>
     <i type="int" name="MREMOVE">     5</i>
    </separator>
   </separator>
   <separator name="electronic dipolcorrection" >
    <i type="logical" name="LDIPOL"> F  </i>
    <i type="logical" name="LMONO"> F  </i>
    <i type="int" name="IDIPOL">     3</i>
    <i name="EPSILON">      1.00000000</i>
    <v name="DIPOL">   -100.00000000   -100.00000000   -100.00000000</v>
    <i name="EFIELD">      0.00000000</i>
   </separator>
  </separator>
  <separator name="grids" >
   <i type="int" name="NGX">    28</i>
   <i type="int" name="NGY">    28</i>
   <i type="int" name="NGZ">   144</i>
   <i type="int" name="NGXF">    56</i>
   <i type="int" name="NGYF">    56</i>
   <i type="int" name="NGZF">   288</i>
   <i type="logical" name="ADDGRID"> F  </i>
  </separator>
  <separator name="ionic" >
   <i type="int" name="NSW">     0</i>
   <i type="int" name="IBRION">    -1</i>
   <i type="int" name="MDALGO">     0</i>
   <i type="int" name="ISIF">     2</i>
   <i name="PSTRESS">      0.00000000</i>
   <i name="EDIFFG">     -0.05000000</i>
   <i type="int" name="NFREE">     1</i>
   <i name="POTIM">      0.50000000</i>
   <i name="SMASS">     -3.00000000</i>
   <i name="SCALEE">      1.00000000</i>
  </separator>
  <separator name="ionic md" >
   <i name="TEBEG">      0.00010000</i>
   <i name="TEEND">      0.00010000</i>
   <i type="int" name="NBLOCK">     1</i>
   <i type="int" name="KBLOCK">     1</i>
   <i type="int" name="NPACO">   256</i>
   <i name="APACO">     16.00000000</i>
  </separator>
  <separator name="symmetry" >
   <i type="int" name="ISYM">     2</i>
   <i name="SYMPREC">      0.00001000</i>
  </separator>
  <separator name="dos" >
   <i type="int" name="LORBIT">     0</i>
   <v name="RWIGS">     -1.00000000     -1.00000000     -1.00000000</v>
   <i type="int" name="NEDOS">   301</i>
   <i name="EMIN">     10.00000000</i>
   <i name="EMAX">    -10.00000000</i>
   <i name="EFERMI">      0.00000000</i>
  </separator>
  <separator name="writing" >
   <i type="int" name="NWRITE">     2</i>
   <i type="logical" name="LWAVE"> F  </i>
   <i type="logical" name="LDOWNSAMPLE"> F  </i>
   <i type="logical" name="LCHARG"> F  </i>
   <i type="logical" name="LPARD"> F  </i>
   <i type="logical" name="LVTOT"> F  </i>
   <i type="logical" name="LVHAR"> F  </i>
   <i type="logical" name="LELF"> F  </i>
   <i type="logical" name="LOPTICS"> F  </i>
   <v name="STM">      0.00000000      0.00000000      0.00000000      0.00000000      0.00000000      0.00000000      0.00000000</v>
  </separator>
  <separator name="performance" >
   <i type="int" name="NPAR">    24</i>
   <i type="int" name="NSIM">     4</i>
   <i type="int" name="NBLK">    -1</i>
   <i type="logical" name="LPLANE"> T  </i>
   <i type="logical" name="LSCALAPACK"> T  </i>
   <i type="logical" name="LSCAAWARE"> F  </i>
   <i type="logical" name="LSCALU"> F  </i>
   <i type="logical" name="LASYNC"> F  </i>
   <i type="logical" name="LORBITALREAL"> F  </i>
  </separator>
  <separator name="miscellaneous" >
   <i type="int" name="IDIOT">     3</i>
   <i type="int" name="ISPECIAL">     0</i>
   <i type="logical" name="LMUSIC"> F  </i>
   <v name="POMASS">    192.22000000    195.08000000    196.96600000</v>
   <v name="DARWINR">      0.00000000      0.00000000      0.00000000</v>
   <v name="DARWINV">      1.00000000      1.00000000      1.00000000</v>
   <i type="logical" name="LCORR"> T  </i>
  </separator>
  <i type="logical" name="GGA_COMPAT"> T  </i>
  <i type="logical" name="LBERRY"> F  </i>
  <i type="int" name="ICORELEVEL">     0</i>
  <i type="logical" name="LDAU"> F  </i>
  <i type="int" name="I_CONSTRAINED_M">     0</i>
  <separator name="electronic exchange-correlation" >
   <i type="string" name="GGA">PE</i>
   <i type="int" name="VOSKOWN">     0</i>
   <i type="logical" name="LHFCALC"> F  </i>
   <i type="string" name="PRECFOCK"></i>
   <i type="logical" name="LSYMGRAD"> F  </i>
   <i type="logical" name="LHFONE"> F  </i>
   <i type="logical" name="LRHFCALC"> F  </i>
   <i type="logical" name="LTHOMAS"> F  </i>
   <i type="logical" name="LMODELHF"> F  </i>
   <i name="ENCUT4O">     -1.00000000</i>
   <i type="int" name="EXXOEP">     0</i>
   <i type="int" name="FOURORBIT">     0</i>
   <i name="AEXX">      0.00000000</i>
   <i name="HFALPHA">      0.00000000</i>
   <i name="MCALPHA">      0.00000000</i>
   <i name="ALDAX">      1.00000000</i>
   <i name="AGGAX">      1.00000000</i>
   <i name="ALDAC">      1.00000000</i>
   <i name="AGGAC">      1.00000000</i>
   <i type="int" name="NKREDX">     1</i>
   <i type="int" name="NKREDY">     1</i>
   <i type="int" name="NKREDZ">     1</i>
   <i type="logical" name="SHIFTRED"> F  </i>
   <i type="logical" name="ODDONLY"> F  </i>
   <i type="logical" name="EVENONLY"> F  </i>
   <i type="int" name="LMAXFOCK">     0</i>
   <i type="int" name="NMAXFOCKAE">     0</i>
   <i type="logical" name="LFOCKAEDFT"> F  </i>
   <i name="HFSCREEN">      0.00000000</i>
   <i name="HFSCREENC">      0.00000000</i>
   <i type="int" name="NBANDSGWLOW">     0</i>
  </separator>
  <separator name="vdW DFT" >
   <i type="logical" name="LUSE_VDW"> F  </i>
   <i name="Zab_VDW">     -0.84910000</i>
   <i name="PARAM1">      0.12340000</i>
   <i name="PARAM2">      1.00000000</i>
   <i name="PARAM3">      0.00000000</i>
  </separator>
  <separator name="model GW" >
   <i type="int" name="MODEL_GW">     0</i>
   <i name="MODEL_EPS0">     30.90479278</i>
   <i name="MODEL_ALPHA">      1.00000000</i>
  </separator>
  <separator name="linear response parameters" >
   <i type="logical" name="LEPSILON"> F  </i>
   <i type="logical" name="LRPA"> F  </i>
   <i type="logical" name="LNABLA"> F  </i>
   <i type="logical" name="LVEL"> F  </i>
   <i type="int" name="KINTER">     0</i>
   <i name="CSHIFT">      0.10000000</i>
   <i name="OMEGAMAX">     -1.00000000</i>
   <i name="DEG_THRESHOLD">      0.00200000</i>
   <i name="RTIME">     -0.10000000</i>
   <i name="WPLASMAI">      0.00000000</i>
   <v name="DFIELD">      0.00000000      0.00000000      0.00000000</v>
   <v name="WPLASMA">      0.00000000      0.00000000      0.00000000      0.00000000      0.00000000      0.00000000      0.00000000      0.00000000      0.00000000</v>
  </separator>
  <separator name="orbital magnetization" >
   <i type="logical" name="NUCIND"> F  </i>
   <v name="MAGPOS">      0.00000000      0.00000000      0.00000000</v>
   <i type="logical" name="LNICSALL"> T  </i>
   <i type="logical" name="ORBITALMAG"> F  </i>
   <i type="logical" name="LMAGBLOCH"> F  </i>
   <i type="logical" name="LCHIMAG"> F  </i>
   <i type="logical" name="LGAUGE"> T  </i>
   <i type="int" name="MAGATOM">     0</i>
   <v name="MAGDIPOL">      0.00000000      0.00000000      0.00000000</v>
   <v name="AVECCONST">      0.00000000      0.00000000      0.00000000</v>
  </separator>
  <separator name="response functions" >
   <i type="logical" name="LADDER"> F  </i>
   <i type="logical" name="LRPAFORCE"> F  </i>
   <i type="logical" name="LFXC"> F  </i>
   <i type="logical" name="LHARTREE"> T  </i>
   <i type="int" name="IBSE">     0</i>
   <v type="int" name="KPOINT">    -1     0     0     0</v>
   <i type="logical" name="LTCTE"> F  </i>
   <i type="logical" name="LTETE"> F  </i>
   <i type="logical" name="LTRIPLET"> F  </i>
   <i type="logical" name="LFXCEPS"> F  </i>
   <i type="logical" name="LFXHEG"> F  </i>
   <i type="int" name="NATURALO">     2</i>
   <i type="logical" name="L2ORDER"> F  </i>
   <i type="logical" name="LMP2LT"> F  </i>
   <i type="logical" name="LUSEW"> F  </i>
   <i name="ENCUTGW">     -2.00000000</i>
   <i name="ENCUTGWSOFT">     -2.00000000</i>
   <i name="ENCUTLF">     -1.00000000</i>
   <i type="int" name="LMAXMP2">    -1</i>
   <i name="SCISSOR">      0.00000000</i>
   <i type="int" name="NOMEGA">     0</i>
   <i type="int" name="NOMEGAR">     0</i>
   <i type="int" name="NBANDSGW">    -1</i>
   <i type="int" name="NBANDSO">    -1</i>
   <i type="int" name="NBANDSV">    -1</i>
   <i type="int" name="NELM">     1</i>
   <i type="int" name="NELMHF">     1</i>
   <i type="int" name="DIM">     3</i>
   <i type="int" name="ANTIRES">     0</i>
   <i name="OMEGAMAX">    -30.00000000</i>
   <i name="OMEGAMIN">    -30.00000000</i>
   <i name="OMEGATL">   -200.00000000</i>
   <i type="int" name="OMEGAGRID">   140</i>
   <i name="CSHIFT">     -0.10000000</i>
   <i type="logical" name="SELFENERGY"> F  </i>
   <i type="logical" name="LSPECTRAL"> F  </i>
   <i type="logical" name="LSPECTRALGW"> F  </i>
   <i type="logical" name="LSINGLES"> F  </i>
   <i type="logical" name="LFERMIGW"> F  </i>
   <i type="logical" name="ODDONLYGW"> F  </i>
   <i type="logical" name="EVENONLYGW"> F  </i>
   <i type="int" name="NKREDLFX">     1</i>
   <i type="int" name="NKREDLFY">     1</i>
   <i type="int" name="NKREDLFZ">     1</i>
   <i type="int" name="MAXMEM">  2800</i>
   <i type="int" name="TELESCOPE">     0</i>
   <i type="int" name="TAUPAR">     1</i>
   <i type="int" name="OMEGAPAR">    -1</i>
   <i name="LAMBDA">      1.00000000</i>
  </separator>
  <separator name="External order field" >
   <i name="OFIELD_KAPPA">      0.00000000</i>
   <v name="OFIELD_K">      0.00000000      0.00000000      0.00000000</v>
   <i name="OFIELD_Q6_NEAR">      0.00000000</i>
   <i name="OFIELD_Q6_FAR">      0.00000000</i>
   <i name="OFIELD_A">      0.00000000</i>
  </separator>
 </parameters>
 <atominfo>
  <atoms>      16 </atoms>
  <types>       3 </types>
  <array name="atoms" >
   <dimension dim="1">ion</dimension>
   <field type="string">element</field>
   <field type="int">atomtype</field>
   <set>
    <rc><c>Ir</c><c>   1</c></rc>
    <rc><c>Pt</c><c>   2</c></rc>
    <rc><c>Pt</c><c>   2</c></rc>
    <rc><c>Pt</c><c>   2</c></rc>
    <rc><c>Pt</c><c>   2</c></rc>
    <rc><c>Pt</c><c>   2</c></rc>
    <rc><c>Pt</c><c>   2</c></rc>
    <rc><c>Pt</c><c>   2</c></rc>
    <rc><c>Pt</c><c>   2</c></rc>
    <rc><c>Pt</c><c>   2</c></rc>
    <rc><c>Pt</c><c>   2</c></rc>
    <rc><c>Pt</c><c>   2</c></rc>
    <rc><c>Pt</c><c>   2</c></rc>
    <rc><c>Pt</c><c>   2</c></rc>
    <rc><c>Pt</c><c>   2</c></rc>
    <rc><c>Au</c><c>   3</c></rc>
   </set>
  </array>
  <array name="atomtypes" >
   <dimension dim="1">type</dimension>
   <field type="int">atomspertype</field>
   <field type="string">element</field>
   <field>mass</field>
   <field>valence</field>
   <field type="string">pseudopotential</field>
   <set>
    <rc><c>   1</c><c>Ir</c><c>    192.22000000</c><c>      9.00000000</c><c>  PAW_PBE Ir 06Sep2000                  </c></rc>
    <rc><c>  14</c><c>Pt</c><c>    195.08000000</c><c>     10.00000000</c><c>  PAW_PBE Pt 04Feb2005                  </c></rc>
    <rc><c>   1</c><c>Au</c><c>    196.96600000</c><c>     11.00000000</c><c>  PAW_PBE Au 04Oct2007                  </c></rc>
   </set>
  </array>
 </atominfo>
 <structure name="initialpos" >
  <crystal>
   <varray name="basis" >
    <v>       5.55785930       0.00000000       0.00000000 </v>
    <v>       2.77892965       4.81324734       0.00000000 </v>
    <v>       0.00000000       0.00000000      30.80695967 </v>
   </varray>
   <i name="volume">    824.12780743 </i>
   <varray name="rec_basis" >
    <v>       0.17992539      -0.10387997       0.00000000 </v>
    <v>       0.00000000       0.20775994       0.00000000 </v>
    <v>       0.00000000       0.00000000       0.03246020 </v>
   </varray>
  </crystal>
  <varray name="positions" >
   <v>       0.00000000       0.00000000       0.38952237 </v>
   <v>       0.50000000       0.00000000       0.38952237 </v>
   <v>       0.00000000       0.50000000       0.38952237 </v>
   <v>       0.50000000       0.50000000       0.38952237 </v>
   <v>       0.16666667       0.16666667       0.46468540 </v>
   <v>       0.66666667       0.16666667       0.46468540 </v>
   <v>       0.16666667       0.66666667       0.46468540 </v>
   <v>       0.66666667       0.66666667       0.46468540 </v>
   <v>       0.83333333       0.33333333       0.53920296 </v>
   <v>       0.83333333       0.83333333       0.53920296 </v>
   <v>       0.33333333       0.83333333       0.53920296 </v>
   <v>       0.00000000       0.00000000       0.61486043 </v>
   <v>       0.50000000       0.00000000       0.61486043 </v>
   <v>       0.00000000       0.50000000       0.61486043 </v>
   <v>       0.50000000       0.50000000       0.61486043 </v>
   <v>       0.33333333       0.33333333       0.53920296 </v>
  </varray>
  <varray name="selective"  type="logical" >
   <v type="logical" >  F  F  F </v>
   <v type="logical" >  F  F  F </v>
   <v type="logical" >  F  F  F </v>
   <v type="logical" >  F  F  F </v>
   <v type="logical" >  T  T  T </v>
   <v type="logical" >  T  T  T </v>
   <v type="logical" >  T  T  T </v>
   <v type="logical" >  T  T  T </v>
   <v type="logical" >  T  T  T </v>
   <v type="logical" >  T  T  T </v>
   <v type="logical" >  T  T  T </v>
   <v type="logical" >  T  T  T </v>
   <v type="logical" >  T  T  T </v>
   <v type="logical" >  T  T  T </v>
   <v type="logical" >  T  T  T </v>
   <v type="logical" >  T  T  T </v>
  </varray>
  <nose>
   <v>      -3.00000000       0.00000000       0.00010000       0.00010000 </v>
  </nose>
 </structure>
 <calculation>
  <scstep>
   <time name="dav">    3.48    3.48</time>
   <time name="total">    3.50    3.51</time>
   <energy>
    <i name="alphaZ">    303.52543553 </i>
    <i name="ewald">  98869.80740212 </i>
    <i name="hartreedc">-110941.70889373 </i>
    <i name="XCdc">     46.22674258 </i>
    <i name="pawpsdc">  11171.21661038 </i>
    <i name="pawaedc"> -10711.84633960 </i>
    <i name="eentropy">     -0.01036116 </i>
    <i name="bandstr">    544.23778218 </i>
    <i name="atom">  11693.69420960 </i>
    <i name="e_fr_energy">    975.14258790 </i>
    <i name="e_wo_entrp">    975.15294906 </i>
    <i name="e_0_energy">    975.14604162 </i>
   </energy>
  </scstep>
  <scstep>
   <time name="dav">    4.96    4.96</time>
   <time name="total">    4.96    4.96</time>
   <energy>
    <i name="e_fr_energy">    -38.90339227 </i>
    <i name="e_wo_entrp">    -38.89962922 </i>
    <i name="e_0_energy">    -38.90213792 </i>
   </energy>
  </scstep>
  <scstep>
   <time name="dav">    4.30    4.30</time>
   <time name="total">    4.30    4.31</time>
   <energy>
    <i name="e_fr_energy">    -96.72028825 </i>
    <i name="e_wo_entrp">    -96.69197898 </i>
    <i name="e_0_energy">    -96.71085183 </i>
   </energy>
  </scstep>
  <scstep>
   <time name="dav">    4.79    4.79</time>
   <time name="total">    4.79    4.79</time>
   <energy>
    <i name="e_fr_energy">    -97.94231257 </i>
    <i name="e_wo_entrp">    -97.91438442 </i>
    <i name="e_0_energy">    -97.93300319 </i>
   </energy>
  </scstep>
  <scstep>
   <time name="dav">    5.13    5.13</time>
   <time name="total">    5.26    5.26</time>
   <energy>
    <i name="e_fr_energy">    -97.97321190 </i>
    <i name="e_wo_entrp">    -97.94526298 </i>
    <i name="e_0_energy">    -97.96389559 </i>
   </energy>
  </scstep>
  <scstep>
   <time name="dav">    4.09    4.09</time>
   <time name="total">    4.24    4.24</time>
   <energy>
    <i name="e_fr_energy">    -95.55962042 </i>
    <i name="e_wo_entrp">    -95.57478961 </i>
    <i name="e_0_energy">    -95.56467682 </i>
   </energy>
  </scstep>
  <scstep>
   <time name="dav">    5.07    5.07</time>
   <time name="total">    5.22    5.23</time>
   <energy>
    <i name="e_fr_energy">   -149.68210940 </i>
    <i name="e_wo_entrp">   -149.66634491 </i>
    <i name="e_0_energy">   -149.67685457 </i>
   </energy>
  </scstep>
  <scstep>
   <time name="dav">    5.19    5.19</time>
   <time name="total">    5.34    5.34</time>
   <energy>
    <i name="e_fr_energy">   -122.95875021 </i>
    <i name="e_wo_entrp">   -122.95736946 </i>
    <i name="e_0_energy">   -122.95828996 </i>
   </energy>
  </scstep>
  <scstep>
   <time name="dav">    5.50    5.50</time>
   <time name="total">    5.65    5.65</time>
   <energy>
    <i name="e_fr_energy">   -115.68906026 </i>
    <i name="e_wo_entrp">   -115.69244937 </i>
    <i name="e_0_energy">   -115.69018996 </i>
   </energy>
  </scstep>
  <scstep>
   <time name="dav">    4.97    4.97</time>
   <time name="total">    5.12    5.12</time>
   <energy>
    <i name="e_fr_energy">    -94.13941603 </i>
    <i name="e_wo_entrp">    -94.12868877 </i>
    <i name="e_0_energy">    -94.13584028 </i>
   </energy>
  </scstep>
  <scstep>
   <time name="dav">    4.88    4.88</time>
   <time name="total">    5.03    5.03</time>
   <energy>
    <i name="e_fr_energy">    -92.52896577 </i>
    <i name="e_wo_entrp">    -92.49201876 </i>
    <i name="e_0_energy">    -92.51665010 </i>
   </energy>
  </scstep>
  <scstep>
   <time name="dav">    5.06    5.06</time>
   <time name="total">    5.21    5.21</time>
   <energy>
    <i name="e_fr_energy">    -92.02309372 </i>
    <i name="e_wo_entrp">    -92.01037214 </i>
    <i name="e_0_energy">    -92.01885319 </i>
   </energy>
  </scstep>
  <scstep>
   <time name="dav">    4.22    4.22</time>
   <time name="total">    4.37    4.37</time>
   <energy>
    <i name="e_fr_energy">    -91.90481107 </i>
    <i name="e_wo_entrp">    -91.88762487 </i>
    <i name="e_0_energy">    -91.89908234 </i>
   </energy>
  </scstep>
  <scstep>
   <time name="dav">    4.74    4.74</time>
   <time name="total">    4.89    4.89</time>
   <energy>
    <i name="e_fr_energy">    -91.80845628 </i>
    <i name="e_wo_entrp">    -91.79252557 </i>
    <i name="e_0_energy">    -91.80314604 </i>
   </energy>
  </scstep>
  <scstep>
   <time name="dav">    4.36    4.36</time>
   <time name="total">    4.52    4.52</time>
   <energy>
    <i name="e_fr_energy">    -91.75004774 </i>
    <i name="e_wo_entrp">    -91.72147633 </i>
    <i name="e_0_energy">    -91.74052394 </i>
   </energy>
  </scstep>
  <scstep>
   <time name="dav">    3.99    3.99</time>
   <time name="total">    4.14    4.14</time>
   <energy>
    <i name="e_fr_energy">    -91.73249214 </i>
    <i name="e_wo_entrp">    -91.70254511 </i>
    <i name="e_0_energy">    -91.72250979 </i>
   </energy>
  </scstep>
  <scstep>
   <time name="dav">    4.75    4.75</time>
   <time name="total">    4.90    4.90</time>
   <energy>
    <i name="e_fr_energy">    -91.70162269 </i>
    <i name="e_wo_entrp">    -91.67022661 </i>
    <i name="e_0_energy">    -91.69115733 </i>
   </energy>
  </scstep>
  <scstep>
   <time name="dav">    3.85    3.85</time>
   <time name="total">    4.00    4.01</time>
   <energy>
    <i name="e_fr_energy">    -91.69673642 </i>
    <i name="e_wo_entrp">    -91.66788144 </i>
    <i name="e_0_energy">    -91.68711809 </i>
   </energy>
  </scstep>
  <scstep>
   <time name="dav">    3.99    3.99</time>
   <time name="total">    4.14    4.15</time>
   <energy>
    <i name="e_fr_energy">    -91.69649280 </i>
    <i name="e_wo_entrp">    -91.66631708 </i>
    <i name="e_0_energy">    -91.68643422 </i>
   </energy>
  </scstep>
  <scstep>
   <time name="dav">    4.75    4.75</time>
   <time name="total">    4.91    4.91</time>
   <energy>
    <i name="e_fr_energy">    -91.69375701 </i>
    <i name="e_wo_entrp">    -91.66489644 </i>
    <i name="e_0_energy">    -91.68413682 </i>
   </energy>
  </scstep>
  <scstep>
   <time name="dav">    4.24    4.24</time>
   <time name="total">    4.39    4.40</time>
   <energy>
    <i name="e_fr_energy">    -91.69383350 </i>
    <i name="e_wo_entrp">    -91.66436331 </i>
    <i name="e_0_energy">    -91.68401010 </i>
   </energy>
  </scstep>
  <scstep>
   <time name="dav">    4.62    4.62</time>
   <time name="total">    4.77    4.77</time>
   <energy>
    <i name="e_fr_energy">    -91.69355058 </i>
    <i name="e_wo_entrp">    -91.66489107 </i>
    <i name="e_0_energy">    -91.68399741 </i>
   </energy>
  </scstep>
  <scstep>
   <time name="dav">    3.97    3.97</time>
   <time name="total">    4.12    4.12</time>
   <energy>
    <i name="e_fr_energy">    -91.69356070 </i>
    <i name="e_wo_entrp">    -91.66490508 </i>
    <i name="e_0_energy">    -91.68400883 </i>
   </energy>
  </scstep>
  <scstep>
   <time name="dav">    3.35    3.35</time>
   <time name="total">    3.50    3.50</time>
   <energy>
    <i name="e_fr_energy">    -91.69357762 </i>
    <i name="e_wo_entrp">    -91.66475829 </i>
    <i name="e_0_energy">    -91.68397118 </i>
   </energy>
  </scstep>
  <scstep>
   <time name="dav">    2.78    2.78</time>
   <time name="total">    2.93    2.94</time>
   <energy>
    <i name="e_fr_energy">    -91.69360651 </i>
    <i name="e_wo_entrp">    -91.66489655 </i>
    <i name="e_0_energy">    -91.68403652 </i>
   </energy>
  </scstep>
  <scstep>
   <time name="dav">    2.88    2.88</time>
   <time name="total">    3.03    3.04</time>
   <energy>
    <i name="e_fr_energy">    -91.69367651 </i>
    <i name="e_wo_entrp">    -91.66501495 </i>
    <i name="e_0_energy">    -91.68412265 </i>
   </energy>
  </scstep>
  <scstep>
   <time name="dav">    2.84    2.84</time>
   <time name="total">    2.99    2.99</time>
   <energy>
    <i name="e_fr_energy">    -91.69370602 </i>
    <i name="e_wo_entrp">    -91.66497869 </i>
    <i name="e_0_energy">    -91.68413024 </i>
   </energy>
  </scstep>
  <scstep>
   <time name="dav">    2.85    2.85</time>
   <time name="total">    3.01    3.01</time>
   <energy>
    <i name="e_fr_energy">    -91.69374884 </i>
    <i name="e_wo_entrp">    -91.66499959 </i>
    <i name="e_0_energy">    -91.68416576 </i>
   </energy>
  </scstep>
  <scstep>
   <time name="dav">    2.77    2.77</time>
   <time name="total">    2.93    2.93</time>
   <energy>
    <i name="e_fr_energy">    -91.69377871 </i>
    <i name="e_wo_entrp">    -91.66503040 </i>
    <i name="e_0_energy">    -91.68419594 </i>
   </energy>
  </scstep>
  <scstep>
   <time name="dav">    2.86    2.86</time>
   <time name="total">    3.01    3.01</time>
   <energy>
    <i name="e_fr_energy">    -91.69379037 </i>
    <i name="e_wo_entrp">    -91.66502839 </i>
    <i name="e_0_energy">    -91.68420305 </i>
   </energy>
  </scstep>
  <scstep>
   <time name="dav">    2.62    2.62</time>
   <time name="total">    2.77    2.78</time>
   <energy>
    <i name="e_fr_energy">    -91.69380103 </i>
    <i name="e_wo_entrp">    -91.66504624 </i>
    <i name="e_0_energy">    -91.68421610 </i>
   </energy>
  </scstep>
  <scstep>
   <time name="dav">    2.80    2.80</time>
   <time name="total">    2.82    2.82</time>
   <energy>
    <i name="alphaZ">    303.52543553 </i>
    <i name="ewald">  98869.80740212 </i>
    <i name="hartreedc">-110770.39720743 </i>
    <i name="XCdc">     40.60203128 </i>
    <i name="pawpsdc">  14203.49129137 </i>
    <i name="pawaedc"> -13788.38866841 </i>
    <i name="eentropy">     -0.02875263 </i>
    <i name="bandstr">   -643.99955076 </i>
    <i name="atom">  11693.69420960 </i>
    <i name="e_fr_energy">    -91.69380932 </i>
    <i name="e_wo_entrp">    -91.66505669 </i>
    <i name="e_0_energy">    -91.68422511 </i>
   </energy>
  </scstep>
  <dipole>
   <v name="dipole">      0.00000000       0.00000000       0.00530678 </v>
   <i name="Tr[quadrupol]">   -957.99374985 </i>
   <i name="Echarged">      0.00000000 </i>
   <i name="Edipol_quadrupol">      0.00000000 </i>
   <i name="Eion">      0.00000000 </i>
  </dipole>
  <structure>
   <crystal>
    <varray name="basis" >
     <v>       5.55785930       0.00000000       0.00000000 </v>
     <v>       2.77892965       4.81324734       0.00000000 </v>
     <v>       0.00000000       0.00000000      30.80695967 </v>
    </varray>
    <i name="volume">    824.12780743 </i>
    <varray name="rec_basis" >
     <v>       0.17992539      -0.10387997       0.00000000 </v>
     <v>       0.00000000       0.20775994       0.00000000 </v>
     <v>       0.00000000       0.00000000       0.03246020 </v>
    </varray>
   </crystal>
   <varray name="positions" >
    <v>       0.00000000       0.00000000       0.38952237 </v>
    <v>       0.50000000       0.00000000       0.38952237 </v>
    <v>       0.00000000       0.50000000       0.38952237 </v>
    <v>       0.50000000       0.50000000       0.38952237 </v>
    <v>       0.16666667       0.16666667       0.46468540 </v>
    <v>       0.66666667       0.16666667       0.46468540 </v>
    <v>       0.16666667       0.66666667       0.46468540 </v>
    <v>       0.66666667       0.66666667       0.46468540 </v>
    <v>       0.83333333       0.33333333       0.53920296 </v>
    <v>       0.83333333       0.83333333       0.53920296 </v>
    <v>       0.33333333       0.83333333       0.53920296 </v>
    <v>       0.00000000       0.00000000       0.61486043 </v>
    <v>       0.50000000       0.00000000       0.61486043 </v>
    <v>       0.00000000       0.50000000       0.61486043 </v>
    <v>       0.50000000       0.50000000       0.61486043 </v>
    <v>       0.33333333       0.33333333       0.53920296 </v>
   </varray>
  </structure>
  <varray name="forces" >
   <v>       0.00000000      -0.00000000       0.85925586 </v>
   <v>       0.00000000       0.04458488      -0.13475513 </v>
   <v>       0.03861164      -0.02229244      -0.13475513 </v>
   <v>      -0.03861164      -0.02229244      -0.13475513 </v>
   <v>      -0.25751820      -0.14867820      -0.43743017 </v>
   <v>       0.25751820      -0.14867820      -0.43743017 </v>
   <v>      -0.00000000       0.29735640      -0.43743017 </v>
   <v>       0.00000000      -0.00000000       0.13872576 </v>
   <v>       0.00000000       0.02031700       0.08632150 </v>
   <v>      -0.01759504      -0.01015850       0.08632150 </v>
   <v>       0.01759504      -0.01015850       0.08632150 </v>
   <v>       0.00000000      -0.00000000      -0.08002759 </v>
   <v>       0.00000000      -0.09105230       0.15377024 </v>
   <v>      -0.07885360       0.04552615       0.15377024 </v>
   <v>       0.07885360       0.04552615       0.15377024 </v>
   <v>       0.00000000      -0.00000000       0.07832667 </v>
  </varray>
  <varray name="stress" >
   <v>     -21.82780046       0.00000000       0.00000000 </v>
   <v>       0.00000000     -21.82780046      -0.00000000 </v>
   <v>       0.00000000      -0.00000000       0.51196161 </v>
  </varray>
  <energy>
   <i name="e_fr_energy">    -91.69380623 </i>
   <i name="e_wo_entrp">    -91.68422202 </i>
   <i name="e_0_energy">     -0.02875263 </i>
  </energy>
  <time name="totalsc">  139.69  139.75</time>
  <eigenvalues>
   <array>
    <dimension dim="1">band</dimension>
    <dimension dim="2">kpoint</dimension>
    <dimension dim="3">spin</dimension>
    <field>eigene</field>
    <field>occ</field>
    <set>
     <set comment="spin 1">
      <set comment="kpoint 1">
       <r>  -10.2435    1.0000 </r>
       <r>   -8.9314    1.0000 </r>
       <r>   -7.8307    1.0000 </r>
       <r>   -7.7861    1.0000 </r>
       <r>   -7.5742    1.0000 </r>
       <r>   -7.5575    1.0000 </r>
       <r>   -7.4994    1.0000 </r>
       <r>   -7.4311    1.0000 </r>
       <r>   -7.4227    1.0000 </r>
       <r>   -7.3108    1.0000 </r>
       <r>   -6.9583    1.0000 </r>
       <r>   -6.9578    1.0000 </r>
       <r>   -6.9024    1.0000 </r>
       <r>   -6.6528    1.0000 </r>
       <r>   -6.6318    1.0000 </r>
       <r>   -6.6240    1.0000 </r>
       <r>   -6.5248    1.0000 </r>
       <r>   -6.4957    1.0000 </r>
       <r>   -6.4875    1.0000 </r>
       <r>   -5.7469    1.0000 </r>
       <r>   -5.7456    1.0000 </r>
       <r>   -5.6882    1.0000 </r>
       <r>   -4.9996    1.0000 </r>
       <r>   -4.8368    1.0000 </r>
       <r>   -4.8362    1.0000 </r>
       <r>   -4.7522    1.0000 </r>
       <r>   -4.7203    1.0000 </r>
       <r>   -4.7134    1.0000 </r>
       <r>   -4.6341    1.0000 </r>
       <r>   -4.5516    1.0000 </r>
       <r>   -4.4761    1.0000 </r>
       <r>   -4.4701    1.0000 </r>
       <r>   -4.3348    1.0000 </r>
       <r>   -4.3047    1.0000 </r>
       <r>   -4.1491    1.0000 </r>
       <r>   -4.1451    1.0000 </r>
       <r>   -3.9796    1.0000 </r>
       <r>   -3.8271    1.0000 </r>
       <r>   -3.7847    1.0000 </r>
       <r>   -3.7644    1.0000 </r>
       <r>   -3.6987    1.0000 </r>
       <r>   -3.5722    1.0000 </r>
       <r>   -3.4911    1.0000 </r>
       <r>   -3.4772    1.0000 </r>
       <r>   -3.4697    1.0000 </r>
       <r>   -3.1056    1.0000 </r>
       <r>   -3.0769    1.0000 </r>
       <r>   -2.9431    1.0000 </r>
       <r>   -2.9143    1.0000 </r>
       <r>   -2.8036    1.0000 </r>
       <r>   -2.7637    1.0000 </r>
       <r>   -2.4655    1.0000 </r>
       <r>   -2.4621    1.0000 </r>
       <r>   -2.0210    1.0000 </r>
       <r>   -1.9977    1.0000 </r>
       <r>   -1.7768    1.0000 </r>
       <r>   -1.7441    1.0000 </r>
       <r>   -1.7227    1.0000 </r>
       <r>   -1.6193    1.0000 </r>
       <r>   -1.5836    1.0000 </r>
       <r>   -1.5663    1.0000 </r>
       <r>   -1.5031    1.0000 </r>
       <r>   -1.2737    1.0056 </r>
       <r>   -1.2508    1.0083 </r>
       <r>   -1.2002    1.0170 </r>
       <r>   -1.1472    1.0289 </r>
       <r>   -1.0789    1.0339 </r>
       <r>   -1.0515    1.0244 </r>
       <r>   -1.0258    1.0048 </r>
       <r>   -0.9748    0.9244 </r>
       <r>   -0.9500    0.8622 </r>
       <r>   -0.9007    0.6961 </r>
       <r>   -0.8076    0.3139 </r>
       <r>   -0.7991    0.2814 </r>
       <r>   -0.7507    0.1241 </r>
       <r>   -0.6570   -0.0228 </r>
       <r>   -0.6400   -0.0306 </r>
       <r>   -0.5159   -0.0192 </r>
       <r>   -0.4006   -0.0031 </r>
       <r>   -0.3339   -0.0007 </r>
       <r>   -0.2921   -0.0003 </r>
       <r>   -0.2277   -0.0000 </r>
       <r>   -0.1012   -0.0000 </r>
       <r>   -0.0257   -0.0000 </r>
       <r>    0.0263   -0.0000 </r>
       <r>    0.0404   -0.0000 </r>
       <r>    0.3510   -0.0000 </r>
       <r>    0.4221   -0.0000 </r>
       <r>    1.1301   -0.0000 </r>
       <r>    1.4865   -0.0000 </r>
       <r>    1.5531   -0.0000 </r>
       <r>    1.6061   -0.0000 </r>
       <r>    1.7495   -0.0000 </r>
       <r>    1.7760   -0.0000 </r>
       <r>    2.4991   -0.0000 </r>
       <r>    2.5307   -0.0000 </r>
      </set>
      <set comment="kpoint 2">
       <r>  -10.0401    1.0000 </r>
       <r>   -8.7299    1.0000 </r>
       <r>   -7.6242    1.0000 </r>
       <r>   -7.5983    1.0000 </r>
       <r>   -7.5418    1.0000 </r>
       <r>   -7.4639    1.0000 </r>
       <r>   -7.3557    1.0000 </r>
       <r>   -7.3293    1.0000 </r>
       <r>   -7.2863    1.0000 </r>
       <r>   -7.1692    1.0000 </r>
       <r>   -6.8602    1.0000 </r>
       <r>   -6.8529    1.0000 </r>
       <r>   -6.8102    1.0000 </r>
       <r>   -6.6094    1.0000 </r>
       <r>   -6.5412    1.0000 </r>
       <r>   -6.4297    1.0000 </r>
       <r>   -6.4207    1.0000 </r>
       <r>   -6.3679    1.0000 </r>
       <r>   -6.2910    1.0000 </r>
       <r>   -5.6892    1.0000 </r>
       <r>   -5.6826    1.0000 </r>
       <r>   -5.6314    1.0000 </r>
       <r>   -5.0068    1.0000 </r>
       <r>   -4.9127    1.0000 </r>
       <r>   -4.8435    1.0000 </r>
       <r>   -4.8327    1.0000 </r>
       <r>   -4.7449    1.0000 </r>
       <r>   -4.6684    1.0000 </r>
       <r>   -4.6515    1.0000 </r>
       <r>   -4.5729    1.0000 </r>
       <r>   -4.5346    1.0000 </r>
       <r>   -4.3513    1.0000 </r>
       <r>   -4.2369    1.0000 </r>
       <r>   -4.2121    1.0000 </r>
       <r>   -4.1302    1.0000 </r>
       <r>   -4.0931    1.0000 </r>
       <r>   -3.9622    1.0000 </r>
       <r>   -3.9429    1.0000 </r>
       <r>   -3.9267    1.0000 </r>
       <r>   -3.6996    1.0000 </r>
       <r>   -3.6664    1.0000 </r>
       <r>   -3.6546    1.0000 </r>
       <r>   -3.6396    1.0000 </r>
       <r>   -3.6225    1.0000 </r>
       <r>   -3.5509    1.0000 </r>
       <r>   -3.4387    1.0000 </r>
       <r>   -3.2755    1.0000 </r>
       <r>   -3.1382    1.0000 </r>
       <r>   -2.8904    1.0000 </r>
       <r>   -2.8002    1.0000 </r>
       <r>   -2.7187    1.0000 </r>
       <r>   -2.5537    1.0000 </r>
       <r>   -2.5110    1.0000 </r>
       <r>   -2.1561    1.0000 </r>
       <r>   -2.0023    1.0000 </r>
       <r>   -1.9745    1.0000 </r>
       <r>   -1.9428    1.0000 </r>
       <r>   -1.8844    1.0000 </r>
       <r>   -1.8533    1.0000 </r>
       <r>   -1.8265    1.0000 </r>
       <r>   -1.7959    1.0000 </r>
       <r>   -1.7276    1.0000 </r>
       <r>   -1.6594    1.0000 </r>
       <r>   -1.5976    1.0000 </r>
       <r>   -1.5374    1.0000 </r>
       <r>   -1.4710    1.0001 </r>
       <r>   -1.2984    1.0036 </r>
       <r>   -1.2752    1.0055 </r>
       <r>   -1.2285    1.0116 </r>
       <r>   -1.1357    1.0312 </r>
       <r>   -1.0897    1.0352 </r>
       <r>   -1.0467    1.0216 </r>
       <r>   -0.9867    0.9487 </r>
       <r>   -0.9579    0.8838 </r>
       <r>   -0.8595    0.5280 </r>
       <r>   -0.8388    0.4407 </r>
       <r>   -0.8145    0.3411 </r>
       <r>   -0.7970    0.2736 </r>
       <r>   -0.7419    0.1013 </r>
       <r>   -0.6947    0.0123 </r>
       <r>   -0.5289   -0.0222 </r>
       <r>   -0.4484   -0.0074 </r>
       <r>   -0.4170   -0.0043 </r>
       <r>   -0.2786   -0.0002 </r>
       <r>   -0.2105   -0.0000 </r>
       <r>    0.1474   -0.0000 </r>
       <r>    0.2540   -0.0000 </r>
       <r>    0.7880   -0.0000 </r>
       <r>    0.8304   -0.0000 </r>
       <r>    1.0929   -0.0000 </r>
       <r>    1.2670   -0.0000 </r>
       <r>    1.6250   -0.0000 </r>
       <r>    2.0911   -0.0000 </r>
       <r>    2.5318   -0.0000 </r>
       <r>    2.9493   -0.0000 </r>
       <r>    3.3220   -0.0000 </r>
      </set>
      <set comment="kpoint 3">
       <r>   -9.5877    1.0000 </r>
       <r>   -8.2947    1.0000 </r>
       <r>   -7.6235    1.0000 </r>
       <r>   -7.2547    1.0000 </r>
       <r>   -7.1994    1.0000 </r>
       <r>   -7.1822    1.0000 </r>
       <r>   -7.1676    1.0000 </r>
       <r>   -7.0171    1.0000 </r>
       <r>   -6.9962    1.0000 </r>
       <r>   -6.8760    1.0000 </r>
       <r>   -6.6783    1.0000 </r>
       <r>   -6.6180    1.0000 </r>
       <r>   -6.5761    1.0000 </r>
       <r>   -6.5265    1.0000 </r>
       <r>   -6.2810    1.0000 </r>
       <r>   -6.2597    1.0000 </r>
       <r>   -6.0981    1.0000 </r>
       <r>   -6.0117    1.0000 </r>
       <r>   -5.9011    1.0000 </r>
       <r>   -5.5582    1.0000 </r>
       <r>   -5.5442    1.0000 </r>
       <r>   -5.5127    1.0000 </r>
       <r>   -5.1564    1.0000 </r>
       <r>   -5.1002    1.0000 </r>
       <r>   -5.0169    1.0000 </r>
       <r>   -4.9459    1.0000 </r>
       <r>   -4.8641    1.0000 </r>
       <r>   -4.7307    1.0000 </r>
       <r>   -4.5846    1.0000 </r>
       <r>   -4.5214    1.0000 </r>
       <r>   -4.3960    1.0000 </r>
       <r>   -4.2881    1.0000 </r>
       <r>   -4.2432    1.0000 </r>
       <r>   -4.2005    1.0000 </r>
       <r>   -4.1454    1.0000 </r>
       <r>   -4.1074    1.0000 </r>
       <r>   -4.0798    1.0000 </r>
       <r>   -4.0162    1.0000 </r>
       <r>   -3.9830    1.0000 </r>
       <r>   -3.9301    1.0000 </r>
       <r>   -3.8751    1.0000 </r>
       <r>   -3.8527    1.0000 </r>
       <r>   -3.7975    1.0000 </r>
       <r>   -3.7427    1.0000 </r>
       <r>   -3.6138    1.0000 </r>
       <r>   -3.4136    1.0000 </r>
       <r>   -3.3873    1.0000 </r>
       <r>   -3.2364    1.0000 </r>
       <r>   -2.9596    1.0000 </r>
       <r>   -2.9209    1.0000 </r>
       <r>   -2.8625    1.0000 </r>
       <r>   -2.7507    1.0000 </r>
       <r>   -2.7107    1.0000 </r>
       <r>   -2.6391    1.0000 </r>
       <r>   -2.6173    1.0000 </r>
       <r>   -2.5960    1.0000 </r>
       <r>   -2.5059    1.0000 </r>
       <r>   -2.4676    1.0000 </r>
       <r>   -2.4072    1.0000 </r>
       <r>   -2.3209    1.0000 </r>
       <r>   -2.2252    1.0000 </r>
       <r>   -2.0447    1.0000 </r>
       <r>   -2.0062    1.0000 </r>
       <r>   -1.9437    1.0000 </r>
       <r>   -1.9126    1.0000 </r>
       <r>   -1.8393    1.0000 </r>
       <r>   -1.6807    1.0000 </r>
       <r>   -1.6601    1.0000 </r>
       <r>   -1.6316    1.0000 </r>
       <r>   -1.5556    1.0000 </r>
       <r>   -1.5149    1.0000 </r>
       <r>   -1.3935    1.0004 </r>
       <r>   -1.3557    1.0011 </r>
       <r>   -1.2699    1.0060 </r>
       <r>   -1.1789    1.0217 </r>
       <r>   -1.0987    1.0355 </r>
       <r>   -1.0541    1.0258 </r>
       <r>   -0.9761    0.9273 </r>
       <r>   -0.9103    0.7325 </r>
       <r>   -0.8530    0.5009 </r>
       <r>   -0.8247    0.3823 </r>
       <r>   -0.7870    0.2374 </r>
       <r>   -0.6552   -0.0239 </r>
       <r>   -0.5900   -0.0344 </r>
       <r>   -0.5275   -0.0218 </r>
       <r>    0.2750   -0.0000 </r>
       <r>    0.3969   -0.0000 </r>
       <r>    0.5019   -0.0000 </r>
       <r>    0.9635   -0.0000 </r>
       <r>    1.6455   -0.0000 </r>
       <r>    1.8931   -0.0000 </r>
       <r>    1.9272   -0.0000 </r>
       <r>    2.3046   -0.0000 </r>
       <r>    2.6331   -0.0000 </r>
       <r>    3.2421   -0.0000 </r>
       <r>    3.8799   -0.0000 </r>
      </set>
      <set comment="kpoint 4">
       <r>   -8.9516    1.0000 </r>
       <r>   -7.9754    1.0000 </r>
       <r>   -7.7323    1.0000 </r>
       <r>   -7.1960    1.0000 </r>
       <r>   -6.9112    1.0000 </r>
       <r>   -6.8138    1.0000 </r>
       <r>   -6.7156    1.0000 </r>
       <r>   -6.6519    1.0000 </r>
       <r>   -6.5997    1.0000 </r>
       <r>   -6.5845    1.0000 </r>
       <r>   -6.5360    1.0000 </r>
       <r>   -6.3165    1.0000 </r>
       <r>   -6.2754    1.0000 </r>
       <r>   -6.1603    1.0000 </r>
       <r>   -6.0798    1.0000 </r>
       <r>   -6.0574    1.0000 </r>
       <r>   -5.8744    1.0000 </r>
       <r>   -5.6022    1.0000 </r>
       <r>   -5.5735    1.0000 </r>
       <r>   -5.4884    1.0000 </r>
       <r>   -5.3998    1.0000 </r>
       <r>   -5.3270    1.0000 </r>
       <r>   -5.2879    1.0000 </r>
       <r>   -5.2126    1.0000 </r>
       <r>   -5.1642    1.0000 </r>
       <r>   -5.0572    1.0000 </r>
       <r>   -5.0095    1.0000 </r>
       <r>   -4.7934    1.0000 </r>
       <r>   -4.7001    1.0000 </r>
       <r>   -4.6773    1.0000 </r>
       <r>   -4.6468    1.0000 </r>
       <r>   -4.5248    1.0000 </r>
       <r>   -4.4325    1.0000 </r>
       <r>   -4.3896    1.0000 </r>
       <r>   -4.3275    1.0000 </r>
       <r>   -4.1750    1.0000 </r>
       <r>   -4.1102    1.0000 </r>
       <r>   -4.0673    1.0000 </r>
       <r>   -3.9396    1.0000 </r>
       <r>   -3.8797    1.0000 </r>
       <r>   -3.8147    1.0000 </r>
       <r>   -3.7756    1.0000 </r>
       <r>   -3.7182    1.0000 </r>
       <r>   -3.6923    1.0000 </r>
       <r>   -3.6392    1.0000 </r>
       <r>   -3.5968    1.0000 </r>
       <r>   -3.4946    1.0000 </r>
       <r>   -3.4264    1.0000 </r>
       <r>   -3.4104    1.0000 </r>
       <r>   -3.3595    1.0000 </r>
       <r>   -3.3029    1.0000 </r>
       <r>   -3.2322    1.0000 </r>
       <r>   -3.1884    1.0000 </r>
       <r>   -3.0819    1.0000 </r>
       <r>   -2.9475    1.0000 </r>
       <r>   -2.9344    1.0000 </r>
       <r>   -2.8662    1.0000 </r>
       <r>   -2.7737    1.0000 </r>
       <r>   -2.7076    1.0000 </r>
       <r>   -2.4999    1.0000 </r>
       <r>   -2.4419    1.0000 </r>
       <r>   -2.3868    1.0000 </r>
       <r>   -2.3594    1.0000 </r>
       <r>   -2.3222    1.0000 </r>
       <r>   -2.2461    1.0000 </r>
       <r>   -2.1420    1.0000 </r>
       <r>   -2.1003    1.0000 </r>
       <r>   -1.9653    1.0000 </r>
       <r>   -1.9308    1.0000 </r>
       <r>   -1.9213    1.0000 </r>
       <r>   -1.8913    1.0000 </r>
       <r>   -1.8249    1.0000 </r>
       <r>   -1.5568    1.0000 </r>
       <r>   -1.4635    1.0001 </r>
       <r>   -1.3663    1.0009 </r>
       <r>   -1.2926    1.0040 </r>
       <r>   -1.1745    1.0227 </r>
       <r>   -1.1085    1.0350 </r>
       <r>   -1.0157    0.9936 </r>
       <r>   -0.8953    0.6753 </r>
       <r>   -0.8453    0.4682 </r>
       <r>   -0.8087    0.3183 </r>
       <r>   -0.7361    0.0875 </r>
       <r>   -0.6068   -0.0355 </r>
       <r>   -0.5361   -0.0238 </r>
       <r>   -0.2454   -0.0001 </r>
       <r>    0.6317   -0.0000 </r>
       <r>    1.0268   -0.0000 </r>
       <r>    1.1161   -0.0000 </r>
       <r>    1.7245   -0.0000 </r>
       <r>    1.9427   -0.0000 </r>
       <r>    2.1095   -0.0000 </r>
       <r>    2.4823   -0.0000 </r>
       <r>    3.0158   -0.0000 </r>
       <r>    3.5853   -0.0000 </r>
       <r>    3.9726   -0.0000 </r>
      </set>
      <set comment="kpoint 5">
       <r>   -8.6062    1.0000 </r>
       <r>   -8.2600    1.0000 </r>
       <r>   -7.4828    1.0000 </r>
       <r>   -7.2916    1.0000 </r>
       <r>   -6.8309    1.0000 </r>
       <r>   -6.7345    1.0000 </r>
       <r>   -6.6042    1.0000 </r>
       <r>   -6.5778    1.0000 </r>
       <r>   -6.4829    1.0000 </r>
       <r>   -6.4199    1.0000 </r>
       <r>   -6.3934    1.0000 </r>
       <r>   -6.2564    1.0000 </r>
       <r>   -6.2432    1.0000 </r>
       <r>   -6.0926    1.0000 </r>
       <r>   -5.9357    1.0000 </r>
       <r>   -5.9027    1.0000 </r>
       <r>   -5.7653    1.0000 </r>
       <r>   -5.7211    1.0000 </r>
       <r>   -5.5895    1.0000 </r>
       <r>   -5.5029    1.0000 </r>
       <r>   -5.3970    1.0000 </r>
       <r>   -5.3199    1.0000 </r>
       <r>   -5.2165    1.0000 </r>
       <r>   -5.1641    1.0000 </r>
       <r>   -5.1336    1.0000 </r>
       <r>   -5.0817    1.0000 </r>
       <r>   -5.0459    1.0000 </r>
       <r>   -4.9413    1.0000 </r>
       <r>   -4.7606    1.0000 </r>
       <r>   -4.6651    1.0000 </r>
       <r>   -4.6353    1.0000 </r>
       <r>   -4.5898    1.0000 </r>
       <r>   -4.4947    1.0000 </r>
       <r>   -4.4385    1.0000 </r>
       <r>   -4.3112    1.0000 </r>
       <r>   -4.1858    1.0000 </r>
       <r>   -4.1089    1.0000 </r>
       <r>   -4.0054    1.0000 </r>
       <r>   -3.9523    1.0000 </r>
       <r>   -3.9141    1.0000 </r>
       <r>   -3.8711    1.0000 </r>
       <r>   -3.8050    1.0000 </r>
       <r>   -3.7807    1.0000 </r>
       <r>   -3.7356    1.0000 </r>
       <r>   -3.6961    1.0000 </r>
       <r>   -3.6665    1.0000 </r>
       <r>   -3.6212    1.0000 </r>
       <r>   -3.5832    1.0000 </r>
       <r>   -3.5506    1.0000 </r>
       <r>   -3.4727    1.0000 </r>
       <r>   -3.4266    1.0000 </r>
       <r>   -3.3619    1.0000 </r>
       <r>   -3.3134    1.0000 </r>
       <r>   -3.0479    1.0000 </r>
       <r>   -3.0277    1.0000 </r>
       <r>   -2.9270    1.0000 </r>
       <r>   -2.8753    1.0000 </r>
       <r>   -2.7935    1.0000 </r>
       <r>   -2.7096    1.0000 </r>
       <r>   -2.6161    1.0000 </r>
       <r>   -2.4989    1.0000 </r>
       <r>   -2.4271    1.0000 </r>
       <r>   -2.3910    1.0000 </r>
       <r>   -2.3255    1.0000 </r>
       <r>   -2.2619    1.0000 </r>
       <r>   -2.2177    1.0000 </r>
       <r>   -2.1538    1.0000 </r>
       <r>   -2.0822    1.0000 </r>
       <r>   -2.0205    1.0000 </r>
       <r>   -2.0062    1.0000 </r>
       <r>   -1.9369    1.0000 </r>
       <r>   -1.8900    1.0000 </r>
       <r>   -1.8207    1.0000 </r>
       <r>   -1.6320    1.0000 </r>
       <r>   -1.3846    1.0006 </r>
       <r>   -1.3503    1.0012 </r>
       <r>   -1.1802    1.0214 </r>
       <r>   -1.1143    1.0345 </r>
       <r>   -0.9964    0.9660 </r>
       <r>   -0.8665    0.5577 </r>
       <r>   -0.8215    0.3692 </r>
       <r>   -0.7984    0.2787 </r>
       <r>   -0.6475   -0.0277 </r>
       <r>   -0.6025   -0.0353 </r>
       <r>   -0.5383   -0.0243 </r>
       <r>   -0.4427   -0.0068 </r>
       <r>    0.6576   -0.0000 </r>
       <r>    1.1447   -0.0000 </r>
       <r>    1.3361   -0.0000 </r>
       <r>    1.6381   -0.0000 </r>
       <r>    1.7363   -0.0000 </r>
       <r>    2.1447   -0.0000 </r>
       <r>    2.5145   -0.0000 </r>
       <r>    3.5703   -0.0000 </r>
       <r>    3.6296   -0.0000 </r>
       <r>    3.9854   -0.0000 </r>
      </set>
      <set comment="kpoint 6">
       <r>   -9.2861    1.0000 </r>
       <r>   -8.0211    1.0000 </r>
       <r>   -7.7535    1.0000 </r>
       <r>   -7.1847    1.0000 </r>
       <r>   -7.0488    1.0000 </r>
       <r>   -6.9808    1.0000 </r>
       <r>   -6.8995    1.0000 </r>
       <r>   -6.8569    1.0000 </r>
       <r>   -6.7940    1.0000 </r>
       <r>   -6.7239    1.0000 </r>
       <r>   -6.6226    1.0000 </r>
       <r>   -6.4535    1.0000 </r>
       <r>   -6.4285    1.0000 </r>
       <r>   -6.3598    1.0000 </r>
       <r>   -6.1699    1.0000 </r>
       <r>   -6.1550    1.0000 </r>
       <r>   -5.9599    1.0000 </r>
       <r>   -5.7860    1.0000 </r>
       <r>   -5.6867    1.0000 </r>
       <r>   -5.4812    1.0000 </r>
       <r>   -5.4549    1.0000 </r>
       <r>   -5.4197    1.0000 </r>
       <r>   -5.2799    1.0000 </r>
       <r>   -5.1958    1.0000 </r>
       <r>   -5.1074    1.0000 </r>
       <r>   -5.0108    1.0000 </r>
       <r>   -4.9399    1.0000 </r>
       <r>   -4.7206    1.0000 </r>
       <r>   -4.6235    1.0000 </r>
       <r>   -4.5908    1.0000 </r>
       <r>   -4.5013    1.0000 </r>
       <r>   -4.3621    1.0000 </r>
       <r>   -4.3195    1.0000 </r>
       <r>   -4.2862    1.0000 </r>
       <r>   -4.2488    1.0000 </r>
       <r>   -4.1947    1.0000 </r>
       <r>   -4.1498    1.0000 </r>
       <r>   -4.0667    1.0000 </r>
       <r>   -3.9912    1.0000 </r>
       <r>   -3.9324    1.0000 </r>
       <r>   -3.8324    1.0000 </r>
       <r>   -3.8192    1.0000 </r>
       <r>   -3.7459    1.0000 </r>
       <r>   -3.7051    1.0000 </r>
       <r>   -3.6418    1.0000 </r>
       <r>   -3.5357    1.0000 </r>
       <r>   -3.3134    1.0000 </r>
       <r>   -3.2112    1.0000 </r>
       <r>   -3.1218    1.0000 </r>
       <r>   -3.0836    1.0000 </r>
       <r>   -3.0551    1.0000 </r>
       <r>   -2.9989    1.0000 </r>
       <r>   -2.9493    1.0000 </r>
       <r>   -2.9294    1.0000 </r>
       <r>   -2.8888    1.0000 </r>
       <r>   -2.8159    1.0000 </r>
       <r>   -2.7737    1.0000 </r>
       <r>   -2.7376    1.0000 </r>
       <r>   -2.6247    1.0000 </r>
       <r>   -2.5750    1.0000 </r>
       <r>   -2.3152    1.0000 </r>
       <r>   -2.2130    1.0000 </r>
       <r>   -2.1815    1.0000 </r>
       <r>   -2.1447    1.0000 </r>
       <r>   -2.0777    1.0000 </r>
       <r>   -2.0416    1.0000 </r>
       <r>   -1.9543    1.0000 </r>
       <r>   -1.8911    1.0000 </r>
       <r>   -1.7950    1.0000 </r>
       <r>   -1.7601    1.0000 </r>
       <r>   -1.7146    1.0000 </r>
       <r>   -1.6147    1.0000 </r>
       <r>   -1.4138    1.0003 </r>
       <r>   -1.3533    1.0011 </r>
       <r>   -1.2226    1.0126 </r>
       <r>   -1.1649    1.0249 </r>
       <r>   -1.1108    1.0349 </r>
       <r>   -1.0795    1.0340 </r>
       <r>   -1.0321    1.0107 </r>
       <r>   -0.9587    0.8859 </r>
       <r>   -0.8475    0.4775 </r>
       <r>   -0.8113    0.3284 </r>
       <r>   -0.7524    0.1286 </r>
       <r>   -0.6032   -0.0354 </r>
       <r>   -0.5340   -0.0233 </r>
       <r>   -0.0074   -0.0000 </r>
       <r>    0.5788   -0.0000 </r>
       <r>    0.7128   -0.0000 </r>
       <r>    1.0521   -0.0000 </r>
       <r>    1.6984   -0.0000 </r>
       <r>    2.0363   -0.0000 </r>
       <r>    2.2647   -0.0000 </r>
       <r>    2.4090   -0.0000 </r>
       <r>    2.4639   -0.0000 </r>
       <r>    3.4696   -0.0000 </r>
       <r>    3.9421   -0.0000 </r>
      </set>
      <set comment="kpoint 7">
       <r>   -9.8422    1.0000 </r>
       <r>   -8.5369    1.0000 </r>
       <r>   -7.5610    1.0000 </r>
       <r>   -7.4340    1.0000 </r>
       <r>   -7.4182    1.0000 </r>
       <r>   -7.3510    1.0000 </r>
       <r>   -7.2709    1.0000 </r>
       <r>   -7.1909    1.0000 </r>
       <r>   -7.1586    1.0000 </r>
       <r>   -7.0326    1.0000 </r>
       <r>   -6.7674    1.0000 </r>
       <r>   -6.7487    1.0000 </r>
       <r>   -6.7175    1.0000 </r>
       <r>   -6.5869    1.0000 </r>
       <r>   -6.4202    1.0000 </r>
       <r>   -6.3483    1.0000 </r>
       <r>   -6.2693    1.0000 </r>
       <r>   -6.2129    1.0000 </r>
       <r>   -6.1130    1.0000 </r>
       <r>   -5.6337    1.0000 </r>
       <r>   -5.6217    1.0000 </r>
       <r>   -5.5786    1.0000 </r>
       <r>   -5.0569    1.0000 </r>
       <r>   -4.9858    1.0000 </r>
       <r>   -4.9361    1.0000 </r>
       <r>   -4.8723    1.0000 </r>
       <r>   -4.8046    1.0000 </r>
       <r>   -4.7024    1.0000 </r>
       <r>   -4.6048    1.0000 </r>
       <r>   -4.5504    1.0000 </r>
       <r>   -4.4754    1.0000 </r>
       <r>   -4.2657    1.0000 </r>
       <r>   -4.2114    1.0000 </r>
       <r>   -4.1646    1.0000 </r>
       <r>   -4.1268    1.0000 </r>
       <r>   -4.0413    1.0000 </r>
       <r>   -4.0218    1.0000 </r>
       <r>   -4.0054    1.0000 </r>
       <r>   -3.9557    1.0000 </r>
       <r>   -3.8671    1.0000 </r>
       <r>   -3.7967    1.0000 </r>
       <r>   -3.7686    1.0000 </r>
       <r>   -3.7283    1.0000 </r>
       <r>   -3.6195    1.0000 </r>
       <r>   -3.5269    1.0000 </r>
       <r>   -3.4708    1.0000 </r>
       <r>   -3.4102    1.0000 </r>
       <r>   -3.2597    1.0000 </r>
       <r>   -2.9062    1.0000 </r>
       <r>   -2.8421    1.0000 </r>
       <r>   -2.7733    1.0000 </r>
       <r>   -2.6228    1.0000 </r>
       <r>   -2.5595    1.0000 </r>
       <r>   -2.3607    1.0000 </r>
       <r>   -2.3017    1.0000 </r>
       <r>   -2.2565    1.0000 </r>
       <r>   -2.2078    1.0000 </r>
       <r>   -2.1112    1.0000 </r>
       <r>   -2.0732    1.0000 </r>
       <r>   -2.0436    1.0000 </r>
       <r>   -1.9573    1.0000 </r>
       <r>   -1.8936    1.0000 </r>
       <r>   -1.8616    1.0000 </r>
       <r>   -1.7774    1.0000 </r>
       <r>   -1.7226    1.0000 </r>
       <r>   -1.6298    1.0000 </r>
       <r>   -1.5015    1.0000 </r>
       <r>   -1.4473    1.0001 </r>
       <r>   -1.4045    1.0003 </r>
       <r>   -1.3181    1.0024 </r>
       <r>   -1.3046    1.0032 </r>
       <r>   -1.2162    1.0138 </r>
       <r>   -1.1671    1.0244 </r>
       <r>   -1.1370    1.0310 </r>
       <r>   -1.0570    1.0272 </r>
       <r>   -1.0044    0.9784 </r>
       <r>   -0.9634    0.8978 </r>
       <r>   -0.9168    0.7560 </r>
       <r>   -0.8250    0.3834 </r>
       <r>   -0.8104    0.3247 </r>
       <r>   -0.6875    0.0034 </r>
       <r>   -0.5731   -0.0318 </r>
       <r>   -0.5593   -0.0291 </r>
       <r>   -0.5113   -0.0182 </r>
       <r>   -0.3354   -0.0008 </r>
       <r>    0.0491   -0.0000 </r>
       <r>    0.3920   -0.0000 </r>
       <r>    0.6630   -0.0000 </r>
       <r>    0.8642   -0.0000 </r>
       <r>    1.3491   -0.0000 </r>
       <r>    1.5254   -0.0000 </r>
       <r>    1.7845   -0.0000 </r>
       <r>    2.1768   -0.0000 </r>
       <r>    2.9054   -0.0000 </r>
       <r>    3.0215   -0.0000 </r>
       <r>    3.5554   -0.0000 </r>
      </set>
      <set comment="kpoint 8">
       <r>  -10.1751    1.0000 </r>
       <r>   -8.8633    1.0000 </r>
       <r>   -7.7608    1.0000 </r>
       <r>   -7.7223    1.0000 </r>
       <r>   -7.5539    1.0000 </r>
       <r>   -7.5277    1.0000 </r>
       <r>   -7.4538    1.0000 </r>
       <r>   -7.3967    1.0000 </r>
       <r>   -7.3754    1.0000 </r>
       <r>   -7.2645    1.0000 </r>
       <r>   -6.9252    1.0000 </r>
       <r>   -6.9231    1.0000 </r>
       <r>   -6.8714    1.0000 </r>
       <r>   -6.6262    1.0000 </r>
       <r>   -6.6177    1.0000 </r>
       <r>   -6.5521    1.0000 </r>
       <r>   -6.4830    1.0000 </r>
       <r>   -6.4606    1.0000 </r>
       <r>   -6.4197    1.0000 </r>
       <r>   -5.7274    1.0000 </r>
       <r>   -5.7242    1.0000 </r>
       <r>   -5.6688    1.0000 </r>
       <r>   -4.9984    1.0000 </r>
       <r>   -4.8592    1.0000 </r>
       <r>   -4.8312    1.0000 </r>
       <r>   -4.7842    1.0000 </r>
       <r>   -4.7054    1.0000 </r>
       <r>   -4.6940    1.0000 </r>
       <r>   -4.6279    1.0000 </r>
       <r>   -4.6075    1.0000 </r>
       <r>   -4.5034    1.0000 </r>
       <r>   -4.4324    1.0000 </r>
       <r>   -4.2987    1.0000 </r>
       <r>   -4.2566    1.0000 </r>
       <r>   -4.1421    1.0000 </r>
       <r>   -4.1294    1.0000 </r>
       <r>   -3.9732    1.0000 </r>
       <r>   -3.8662    1.0000 </r>
       <r>   -3.8339    1.0000 </r>
       <r>   -3.7395    1.0000 </r>
       <r>   -3.6506    1.0000 </r>
       <r>   -3.5954    1.0000 </r>
       <r>   -3.5583    1.0000 </r>
       <r>   -3.5429    1.0000 </r>
       <r>   -3.5207    1.0000 </r>
       <r>   -3.2565    1.0000 </r>
       <r>   -3.1193    1.0000 </r>
       <r>   -3.0589    1.0000 </r>
       <r>   -2.8712    1.0000 </r>
       <r>   -2.8026    1.0000 </r>
       <r>   -2.7180    1.0000 </r>
       <r>   -2.4997    1.0000 </r>
       <r>   -2.4795    1.0000 </r>
       <r>   -2.0442    1.0000 </r>
       <r>   -1.9598    1.0000 </r>
       <r>   -1.8438    1.0000 </r>
       <r>   -1.7884    1.0000 </r>
       <r>   -1.7803    1.0000 </r>
       <r>   -1.7298    1.0000 </r>
       <r>   -1.6460    1.0000 </r>
       <r>   -1.6445    1.0000 </r>
       <r>   -1.6128    1.0000 </r>
       <r>   -1.4388    1.0001 </r>
       <r>   -1.3696    1.0008 </r>
       <r>   -1.3074    1.0030 </r>
       <r>   -1.2518    1.0081 </r>
       <r>   -1.2038    1.0162 </r>
       <r>   -1.1364    1.0311 </r>
       <r>   -1.1214    1.0336 </r>
       <r>   -1.0208    0.9996 </r>
       <r>   -0.9852    0.9459 </r>
       <r>   -0.9229    0.7773 </r>
       <r>   -0.8885    0.6484 </r>
       <r>   -0.8134    0.3367 </r>
       <r>   -0.7611    0.1533 </r>
       <r>   -0.7172    0.0480 </r>
       <r>   -0.6221   -0.0346 </r>
       <r>   -0.5882   -0.0342 </r>
       <r>   -0.5585   -0.0289 </r>
       <r>   -0.5097   -0.0179 </r>
       <r>   -0.4482   -0.0074 </r>
       <r>   -0.4194   -0.0045 </r>
       <r>   -0.2476   -0.0001 </r>
       <r>   -0.1885   -0.0000 </r>
       <r>    0.0927   -0.0000 </r>
       <r>    0.1094   -0.0000 </r>
       <r>    0.3630   -0.0000 </r>
       <r>    0.8021   -0.0000 </r>
       <r>    0.8315   -0.0000 </r>
       <r>    0.9168   -0.0000 </r>
       <r>    1.4915   -0.0000 </r>
       <r>    1.4928   -0.0000 </r>
       <r>    1.9498   -0.0000 </r>
       <r>    2.2293   -0.0000 </r>
       <r>    2.4346   -0.0000 </r>
       <r>    3.1274   -0.0000 </r>
      </set>
      <set comment="kpoint 9">
       <r>   -9.9736    1.0000 </r>
       <r>   -8.6648    1.0000 </r>
       <r>   -7.5728    1.0000 </r>
       <r>   -7.5580    1.0000 </r>
       <r>   -7.5375    1.0000 </r>
       <r>   -7.3669    1.0000 </r>
       <r>   -7.3478    1.0000 </r>
       <r>   -7.3035    1.0000 </r>
       <r>   -7.2300    1.0000 </r>
       <r>   -7.1249    1.0000 </r>
       <r>   -6.8275    1.0000 </r>
       <r>   -6.8190    1.0000 </r>
       <r>   -6.7811    1.0000 </r>
       <r>   -6.6243    1.0000 </r>
       <r>   -6.4304    1.0000 </r>
       <r>   -6.4214    1.0000 </r>
       <r>   -6.4118    1.0000 </r>
       <r>   -6.2700    1.0000 </r>
       <r>   -6.2594    1.0000 </r>
       <r>   -5.6721    1.0000 </r>
       <r>   -5.6604    1.0000 </r>
       <r>   -5.6137    1.0000 </r>
       <r>   -5.0181    1.0000 </r>
       <r>   -4.9045    1.0000 </r>
       <r>   -4.9002    1.0000 </r>
       <r>   -4.8579    1.0000 </r>
       <r>   -4.7704    1.0000 </r>
       <r>   -4.6670    1.0000 </r>
       <r>   -4.6280    1.0000 </r>
       <r>   -4.5786    1.0000 </r>
       <r>   -4.5124    1.0000 </r>
       <r>   -4.3128    1.0000 </r>
       <r>   -4.2138    1.0000 </r>
       <r>   -4.2104    1.0000 </r>
       <r>   -4.1275    1.0000 </r>
       <r>   -4.0725    1.0000 </r>
       <r>   -3.9748    1.0000 </r>
       <r>   -3.9556    1.0000 </r>
       <r>   -3.9511    1.0000 </r>
       <r>   -3.7658    1.0000 </r>
       <r>   -3.6981    1.0000 </r>
       <r>   -3.6871    1.0000 </r>
       <r>   -3.6717    1.0000 </r>
       <r>   -3.6152    1.0000 </r>
       <r>   -3.5075    1.0000 </r>
       <r>   -3.4576    1.0000 </r>
       <r>   -3.4269    1.0000 </r>
       <r>   -3.1199    1.0000 </r>
       <r>   -2.9304    1.0000 </r>
       <r>   -2.7961    1.0000 </r>
       <r>   -2.7364    1.0000 </r>
       <r>   -2.5634    1.0000 </r>
       <r>   -2.5444    1.0000 </r>
       <r>   -2.1921    1.0000 </r>
       <r>   -2.0886    1.0000 </r>
       <r>   -2.0477    1.0000 </r>
       <r>   -2.0297    1.0000 </r>
       <r>   -2.0031    1.0000 </r>
       <r>   -1.9316    1.0000 </r>
       <r>   -1.9074    1.0000 </r>
       <r>   -1.8865    1.0000 </r>
       <r>   -1.7641    1.0000 </r>
       <r>   -1.6941    1.0000 </r>
       <r>   -1.6760    1.0000 </r>
       <r>   -1.5782    1.0000 </r>
       <r>   -1.5051    1.0000 </r>
       <r>   -1.3812    1.0006 </r>
       <r>   -1.3274    1.0020 </r>
       <r>   -1.2771    1.0053 </r>
       <r>   -1.2064    1.0157 </r>
       <r>   -1.1721    1.0232 </r>
       <r>   -1.1093    1.0350 </r>
       <r>   -1.0537    1.0256 </r>
       <r>   -1.0190    0.9975 </r>
       <r>   -0.9832    0.9420 </r>
       <r>   -0.9254    0.7858 </r>
       <r>   -0.8433    0.4595 </r>
       <r>   -0.8140    0.3388 </r>
       <r>   -0.7797    0.2122 </r>
       <r>   -0.7442    0.1071 </r>
       <r>   -0.5470   -0.0263 </r>
       <r>   -0.5043   -0.0167 </r>
       <r>   -0.5025   -0.0163 </r>
       <r>   -0.4225   -0.0048 </r>
       <r>   -0.3268   -0.0006 </r>
       <r>   -0.1591   -0.0000 </r>
       <r>    0.7638   -0.0000 </r>
       <r>    0.8372   -0.0000 </r>
       <r>    0.8784   -0.0000 </r>
       <r>    1.0190   -0.0000 </r>
       <r>    1.4753   -0.0000 </r>
       <r>    1.5095   -0.0000 </r>
       <r>    2.2341   -0.0000 </r>
       <r>    2.2969   -0.0000 </r>
       <r>    3.1488   -0.0000 </r>
       <r>    3.5831   -0.0000 </r>
      </set>
      <set comment="kpoint 10">
       <r>   -9.6493    1.0000 </r>
       <r>   -8.3514    1.0000 </r>
       <r>   -7.5116    1.0000 </r>
       <r>   -7.3713    1.0000 </r>
       <r>   -7.2594    1.0000 </r>
       <r>   -7.2385    1.0000 </r>
       <r>   -7.1675    1.0000 </r>
       <r>   -7.0846    1.0000 </r>
       <r>   -7.0176    1.0000 </r>
       <r>   -6.9104    1.0000 </r>
       <r>   -6.6823    1.0000 </r>
       <r>   -6.6595    1.0000 </r>
       <r>   -6.5966    1.0000 </r>
       <r>   -6.5040    1.0000 </r>
       <r>   -6.4125    1.0000 </r>
       <r>   -6.2283    1.0000 </r>
       <r>   -6.1418    1.0000 </r>
       <r>   -6.0860    1.0000 </r>
       <r>   -5.9273    1.0000 </r>
       <r>   -5.5767    1.0000 </r>
       <r>   -5.5674    1.0000 </r>
       <r>   -5.5242    1.0000 </r>
       <r>   -5.1567    1.0000 </r>
       <r>   -5.0583    1.0000 </r>
       <r>   -5.0150    1.0000 </r>
       <r>   -4.8810    1.0000 </r>
       <r>   -4.8614    1.0000 </r>
       <r>   -4.7551    1.0000 </r>
       <r>   -4.5945    1.0000 </r>
       <r>   -4.4879    1.0000 </r>
       <r>   -4.4256    1.0000 </r>
       <r>   -4.3009    1.0000 </r>
       <r>   -4.2229    1.0000 </r>
       <r>   -4.1800    1.0000 </r>
       <r>   -4.1352    1.0000 </r>
       <r>   -4.0978    1.0000 </r>
       <r>   -4.0447    1.0000 </r>
       <r>   -4.0318    1.0000 </r>
       <r>   -3.9862    1.0000 </r>
       <r>   -3.9036    1.0000 </r>
       <r>   -3.8827    1.0000 </r>
       <r>   -3.8520    1.0000 </r>
       <r>   -3.7970    1.0000 </r>
       <r>   -3.7591    1.0000 </r>
       <r>   -3.5213    1.0000 </r>
       <r>   -3.4420    1.0000 </r>
       <r>   -3.3977    1.0000 </r>
       <r>   -3.2698    1.0000 </r>
       <r>   -2.9214    1.0000 </r>
       <r>   -2.9009    1.0000 </r>
       <r>   -2.8373    1.0000 </r>
       <r>   -2.6985    1.0000 </r>
       <r>   -2.6435    1.0000 </r>
       <r>   -2.5960    1.0000 </r>
       <r>   -2.5856    1.0000 </r>
       <r>   -2.5395    1.0000 </r>
       <r>   -2.4828    1.0000 </r>
       <r>   -2.3718    1.0000 </r>
       <r>   -2.3159    1.0000 </r>
       <r>   -2.2814    1.0000 </r>
       <r>   -2.1930    1.0000 </r>
       <r>   -1.9787    1.0000 </r>
       <r>   -1.9397    1.0000 </r>
       <r>   -1.8861    1.0000 </r>
       <r>   -1.8689    1.0000 </r>
       <r>   -1.7904    1.0000 </r>
       <r>   -1.6507    1.0000 </r>
       <r>   -1.6187    1.0000 </r>
       <r>   -1.5713    1.0000 </r>
       <r>   -1.5361    1.0000 </r>
       <r>   -1.4982    1.0000 </r>
       <r>   -1.3670    1.0008 </r>
       <r>   -1.2562    1.0076 </r>
       <r>   -1.1624    1.0255 </r>
       <r>   -1.0906    1.0352 </r>
       <r>   -1.0412    1.0180 </r>
       <r>   -1.0125    0.9896 </r>
       <r>   -0.9760    0.9269 </r>
       <r>   -0.8907    0.6571 </r>
       <r>   -0.8593    0.5273 </r>
       <r>   -0.7463    0.1124 </r>
       <r>   -0.6648   -0.0178 </r>
       <r>   -0.6137   -0.0353 </r>
       <r>   -0.5038   -0.0166 </r>
       <r>   -0.2632   -0.0001 </r>
       <r>   -0.0426   -0.0000 </r>
       <r>    0.2944   -0.0000 </r>
       <r>    0.3310   -0.0000 </r>
       <r>    0.6859   -0.0000 </r>
       <r>    1.2462   -0.0000 </r>
       <r>    1.7722   -0.0000 </r>
       <r>    2.1740   -0.0000 </r>
       <r>    2.7744   -0.0000 </r>
       <r>    2.9407   -0.0000 </r>
       <r>    3.3181   -0.0000 </r>
       <r>    3.3719   -0.0000 </r>
      </set>
      <set comment="kpoint 11">
       <r>   -9.1044    1.0000 </r>
       <r>   -7.8502    1.0000 </r>
       <r>   -7.5623    1.0000 </r>
       <r>   -7.3319    1.0000 </r>
       <r>   -6.9985    1.0000 </r>
       <r>   -6.8769    1.0000 </r>
       <r>   -6.8306    1.0000 </r>
       <r>   -6.7370    1.0000 </r>
       <r>   -6.6608    1.0000 </r>
       <r>   -6.6210    1.0000 </r>
       <r>   -6.4853    1.0000 </r>
       <r>   -6.4248    1.0000 </r>
       <r>   -6.3306    1.0000 </r>
       <r>   -6.2593    1.0000 </r>
       <r>   -6.2077    1.0000 </r>
       <r>   -5.9620    1.0000 </r>
       <r>   -5.8413    1.0000 </r>
       <r>   -5.7676    1.0000 </r>
       <r>   -5.6371    1.0000 </r>
       <r>   -5.4356    1.0000 </r>
       <r>   -5.4292    1.0000 </r>
       <r>   -5.3429    1.0000 </r>
       <r>   -5.3007    1.0000 </r>
       <r>   -5.2721    1.0000 </r>
       <r>   -5.2013    1.0000 </r>
       <r>   -5.0726    1.0000 </r>
       <r>   -4.9182    1.0000 </r>
       <r>   -4.8252    1.0000 </r>
       <r>   -4.7711    1.0000 </r>
       <r>   -4.6164    1.0000 </r>
       <r>   -4.5942    1.0000 </r>
       <r>   -4.4623    1.0000 </r>
       <r>   -4.3442    1.0000 </r>
       <r>   -4.3201    1.0000 </r>
       <r>   -4.3040    1.0000 </r>
       <r>   -4.2295    1.0000 </r>
       <r>   -4.1736    1.0000 </r>
       <r>   -4.1133    1.0000 </r>
       <r>   -4.0389    1.0000 </r>
       <r>   -3.9623    1.0000 </r>
       <r>   -3.9122    1.0000 </r>
       <r>   -3.8734    1.0000 </r>
       <r>   -3.7353    1.0000 </r>
       <r>   -3.6966    1.0000 </r>
       <r>   -3.6167    1.0000 </r>
       <r>   -3.5195    1.0000 </r>
       <r>   -3.4944    1.0000 </r>
       <r>   -3.4269    1.0000 </r>
       <r>   -3.3089    1.0000 </r>
       <r>   -3.2707    1.0000 </r>
       <r>   -3.1434    1.0000 </r>
       <r>   -3.0707    1.0000 </r>
       <r>   -3.0241    1.0000 </r>
       <r>   -2.9457    1.0000 </r>
       <r>   -2.9124    1.0000 </r>
       <r>   -2.8957    1.0000 </r>
       <r>   -2.8268    1.0000 </r>
       <r>   -2.7294    1.0000 </r>
       <r>   -2.6648    1.0000 </r>
       <r>   -2.5817    1.0000 </r>
       <r>   -2.4712    1.0000 </r>
       <r>   -2.4139    1.0000 </r>
       <r>   -2.2863    1.0000 </r>
       <r>   -2.2014    1.0000 </r>
       <r>   -2.1173    1.0000 </r>
       <r>   -2.0092    1.0000 </r>
       <r>   -1.9278    1.0000 </r>
       <r>   -1.8053    1.0000 </r>
       <r>   -1.7893    1.0000 </r>
       <r>   -1.7617    1.0000 </r>
       <r>   -1.6093    1.0000 </r>
       <r>   -1.5050    1.0000 </r>
       <r>   -1.3839    1.0006 </r>
       <r>   -1.3101    1.0028 </r>
       <r>   -1.2238    1.0124 </r>
       <r>   -1.1723    1.0232 </r>
       <r>   -1.0722    1.0325 </r>
       <r>   -1.0316    1.0103 </r>
       <r>   -0.9846    0.9447 </r>
       <r>   -0.9253    0.7854 </r>
       <r>   -0.8294    0.4014 </r>
       <r>   -0.7894    0.2460 </r>
       <r>   -0.7792    0.2105 </r>
       <r>   -0.7138    0.0418 </r>
       <r>   -0.6056   -0.0354 </r>
       <r>   -0.3614   -0.0014 </r>
       <r>   -0.1088   -0.0000 </r>
       <r>    0.3196   -0.0000 </r>
       <r>    0.8006   -0.0000 </r>
       <r>    0.9014   -0.0000 </r>
       <r>    2.4839   -0.0000 </r>
       <r>    2.7658   -0.0000 </r>
       <r>    2.8726   -0.0000 </r>
       <r>    2.9029   -0.0000 </r>
       <r>    3.5186   -0.0000 </r>
       <r>    3.8956   -0.0000 </r>
      </set>
      <set comment="kpoint 12">
       <r>   -8.4290    1.0000 </r>
       <r>   -8.0804    1.0000 </r>
       <r>   -7.3147    1.0000 </r>
       <r>   -7.1768    1.0000 </r>
       <r>   -7.1204    1.0000 </r>
       <r>   -6.6969    1.0000 </r>
       <r>   -6.5441    1.0000 </r>
       <r>   -6.4329    1.0000 </r>
       <r>   -6.3955    1.0000 </r>
       <r>   -6.2892    1.0000 </r>
       <r>   -6.2684    1.0000 </r>
       <r>   -6.2043    1.0000 </r>
       <r>   -6.1040    1.0000 </r>
       <r>   -6.0004    1.0000 </r>
       <r>   -5.9477    1.0000 </r>
       <r>   -5.8197    1.0000 </r>
       <r>   -5.7359    1.0000 </r>
       <r>   -5.6597    1.0000 </r>
       <r>   -5.5620    1.0000 </r>
       <r>   -5.5212    1.0000 </r>
       <r>   -5.4633    1.0000 </r>
       <r>   -5.3392    1.0000 </r>
       <r>   -5.2688    1.0000 </r>
       <r>   -5.2495    1.0000 </r>
       <r>   -5.2040    1.0000 </r>
       <r>   -5.1378    1.0000 </r>
       <r>   -5.1007    1.0000 </r>
       <r>   -5.0436    1.0000 </r>
       <r>   -4.8256    1.0000 </r>
       <r>   -4.6734    1.0000 </r>
       <r>   -4.6159    1.0000 </r>
       <r>   -4.5385    1.0000 </r>
       <r>   -4.4955    1.0000 </r>
       <r>   -4.4625    1.0000 </r>
       <r>   -4.4193    1.0000 </r>
       <r>   -4.3450    1.0000 </r>
       <r>   -4.3013    1.0000 </r>
       <r>   -4.2462    1.0000 </r>
       <r>   -4.2162    1.0000 </r>
       <r>   -4.1371    1.0000 </r>
       <r>   -4.0249    1.0000 </r>
       <r>   -3.9113    1.0000 </r>
       <r>   -3.8323    1.0000 </r>
       <r>   -3.8099    1.0000 </r>
       <r>   -3.7681    1.0000 </r>
       <r>   -3.7366    1.0000 </r>
       <r>   -3.6833    1.0000 </r>
       <r>   -3.6165    1.0000 </r>
       <r>   -3.5070    1.0000 </r>
       <r>   -3.4357    1.0000 </r>
       <r>   -3.3875    1.0000 </r>
       <r>   -3.3149    1.0000 </r>
       <r>   -3.1695    1.0000 </r>
       <r>   -3.0379    1.0000 </r>
       <r>   -2.9971    1.0000 </r>
       <r>   -2.9239    1.0000 </r>
       <r>   -2.8831    1.0000 </r>
       <r>   -2.8052    1.0000 </r>
       <r>   -2.7127    1.0000 </r>
       <r>   -2.5740    1.0000 </r>
       <r>   -2.4960    1.0000 </r>
       <r>   -2.4524    1.0000 </r>
       <r>   -2.3734    1.0000 </r>
       <r>   -2.2627    1.0000 </r>
       <r>   -2.1475    1.0000 </r>
       <r>   -2.0943    1.0000 </r>
       <r>   -1.9705    1.0000 </r>
       <r>   -1.9349    1.0000 </r>
       <r>   -1.8644    1.0000 </r>
       <r>   -1.8537    1.0000 </r>
       <r>   -1.7079    1.0000 </r>
       <r>   -1.6552    1.0000 </r>
       <r>   -1.5830    1.0000 </r>
       <r>   -1.5058    1.0000 </r>
       <r>   -1.4227    1.0002 </r>
       <r>   -1.3437    1.0014 </r>
       <r>   -1.2956    1.0038 </r>
       <r>   -1.1861    1.0200 </r>
       <r>   -1.0892    1.0352 </r>
       <r>   -1.0291    1.0080 </r>
       <r>   -1.0032    0.9767 </r>
       <r>   -0.9770    0.9292 </r>
       <r>   -0.8399    0.4453 </r>
       <r>   -0.7918    0.2545 </r>
       <r>   -0.4566   -0.0085 </r>
       <r>   -0.2894   -0.0003 </r>
       <r>   -0.2402   -0.0001 </r>
       <r>   -0.0312   -0.0000 </r>
       <r>    0.8741   -0.0000 </r>
       <r>    1.4934   -0.0000 </r>
       <r>    1.8021   -0.0000 </r>
       <r>    2.8185   -0.0000 </r>
       <r>    2.8864   -0.0000 </r>
       <r>    3.8403   -0.0000 </r>
       <r>    3.8850   -0.0000 </r>
       <r>    4.3850   -0.0000 </r>
      </set>
      <set comment="kpoint 13">
       <r>   -8.7737    1.0000 </r>
       <r>   -7.7891    1.0000 </r>
       <r>   -7.5660    1.0000 </r>
       <r>   -7.2371    1.0000 </r>
       <r>   -7.0171    1.0000 </r>
       <r>   -6.7573    1.0000 </r>
       <r>   -6.6476    1.0000 </r>
       <r>   -6.5325    1.0000 </r>
       <r>   -6.4982    1.0000 </r>
       <r>   -6.4386    1.0000 </r>
       <r>   -6.3873    1.0000 </r>
       <r>   -6.2813    1.0000 </r>
       <r>   -6.2133    1.0000 </r>
       <r>   -6.1319    1.0000 </r>
       <r>   -6.0375    1.0000 </r>
       <r>   -5.8789    1.0000 </r>
       <r>   -5.7238    1.0000 </r>
       <r>   -5.6404    1.0000 </r>
       <r>   -5.5851    1.0000 </r>
       <r>   -5.4652    1.0000 </r>
       <r>   -5.4326    1.0000 </r>
       <r>   -5.3411    1.0000 </r>
       <r>   -5.2823    1.0000 </r>
       <r>   -5.2547    1.0000 </r>
       <r>   -5.2094    1.0000 </r>
       <r>   -5.1284    1.0000 </r>
       <r>   -5.0512    1.0000 </r>
       <r>   -4.9643    1.0000 </r>
       <r>   -4.8390    1.0000 </r>
       <r>   -4.7174    1.0000 </r>
       <r>   -4.6253    1.0000 </r>
       <r>   -4.5226    1.0000 </r>
       <r>   -4.4434    1.0000 </r>
       <r>   -4.4113    1.0000 </r>
       <r>   -4.3776    1.0000 </r>
       <r>   -4.2825    1.0000 </r>
       <r>   -4.1631    1.0000 </r>
       <r>   -4.1361    1.0000 </r>
       <r>   -4.0813    1.0000 </r>
       <r>   -3.9759    1.0000 </r>
       <r>   -3.9374    1.0000 </r>
       <r>   -3.8774    1.0000 </r>
       <r>   -3.8521    1.0000 </r>
       <r>   -3.8208    1.0000 </r>
       <r>   -3.7894    1.0000 </r>
       <r>   -3.6974    1.0000 </r>
       <r>   -3.6507    1.0000 </r>
       <r>   -3.5186    1.0000 </r>
       <r>   -3.3977    1.0000 </r>
       <r>   -3.3529    1.0000 </r>
       <r>   -3.3034    1.0000 </r>
       <r>   -3.2248    1.0000 </r>
       <r>   -3.1618    1.0000 </r>
       <r>   -3.0283    1.0000 </r>
       <r>   -2.9668    1.0000 </r>
       <r>   -2.9324    1.0000 </r>
       <r>   -2.8589    1.0000 </r>
       <r>   -2.8102    1.0000 </r>
       <r>   -2.6892    1.0000 </r>
       <r>   -2.5485    1.0000 </r>
       <r>   -2.5102    1.0000 </r>
[...]
       <r>   -4.4650    1.0000 </r>
       <r>   -4.3405    1.0000 </r>
       <r>   -4.3029    1.0000 </r>
       <r>   -4.1625    1.0000 </r>
       <r>   -4.1371    1.0000 </r>
       <r>   -4.0965    1.0000 </r>
       <r>   -4.0565    1.0000 </r>
       <r>   -3.9789    1.0000 </r>
       <r>   -3.8276    1.0000 </r>
       <r>   -3.7782    1.0000 </r>
       <r>   -3.7616    1.0000 </r>
       <r>   -3.7526    1.0000 </r>
       <r>   -3.6999    1.0000 </r>
       <r>   -3.6530    1.0000 </r>
       <r>   -3.6324    1.0000 </r>
       <r>   -3.5762    1.0000 </r>
       <r>   -3.4762    1.0000 </r>
       <r>   -3.3956    1.0000 </r>
       <r>   -3.3393    1.0000 </r>
       <r>   -3.2410    1.0000 </r>
       <r>   -3.0627    1.0000 </r>
       <r>   -2.9789    1.0000 </r>
       <r>   -2.9278    1.0000 </r>
       <r>   -2.8400    1.0000 </r>
       <r>   -2.8325    1.0000 </r>
       <r>   -2.7068    1.0000 </r>
       <r>   -2.6337    1.0000 </r>
       <r>   -2.4668    1.0000 </r>
       <r>   -2.4567    1.0000 </r>
       <r>   -2.3738    1.0000 </r>
       <r>   -2.3181    1.0000 </r>
       <r>   -2.2008    1.0000 </r>
       <r>   -2.1685    1.0000 </r>
       <r>   -2.1124    1.0000 </r>
       <r>   -2.0277    1.0000 </r>
       <r>   -1.9724    1.0000 </r>
       <r>   -1.9190    1.0000 </r>
       <r>   -1.8622    1.0000 </r>
       <r>   -1.7730    1.0000 </r>
       <r>   -1.7619    1.0000 </r>
       <r>   -1.5968    1.0000 </r>
       <r>   -1.4205    1.0002 </r>
       <r>   -1.3829    1.0006 </r>
       <r>   -1.2326    1.0109 </r>
       <r>   -1.1205    1.0338 </r>
       <r>   -1.0569    1.0271 </r>
       <r>   -0.9351    0.8176 </r>
       <r>   -0.9119    0.7383 </r>
       <r>   -0.8799    0.6134 </r>
       <r>   -0.7009    0.0209 </r>
       <r>   -0.6450   -0.0287 </r>
       <r>   -0.4995   -0.0158 </r>
       <r>   -0.4096   -0.0037 </r>
       <r>    0.1707   -0.0000 </r>
       <r>    0.5402   -0.0000 </r>
       <r>    1.4646   -0.0000 </r>
       <r>    1.5353   -0.0000 </r>
       <r>    1.5673   -0.0000 </r>
       <r>    2.2807   -0.0000 </r>
       <r>    3.1945   -0.0000 </r>
       <r>    3.3991   -0.0000 </r>
       <r>    3.9167   -0.0000 </r>
       <r>    3.9889   -0.0000 </r>
      </set>
     </set>
    </set>
   </array>
  </eigenvalues>
  <separator name="orbital magnetization" >
   <v name="MAGDIPOLOUT">      0.00000000      0.00000000      0.00000000</v>
  </separator>
  <dos>
   <i name="efermi">     -0.85284132 </i>
   <total>
    <array>
     <dimension dim="1">gridpoints</dimension>
     <dimension dim="2">spin</dimension>
     <field>energy</field>
     <field>total</field>
     <field>integrated</field>
     <set>
      <set comment="spin 1">
       <r>   -12.2435     0.0000     0.0000 </r>
       <r>   -12.1811     0.0000     0.0000 </r>
       <r>   -12.1186     0.0000     0.0000 </r>
       <r>   -12.0562     0.0000     0.0000 </r>
       <r>   -11.9937     0.0000     0.0000 </r>
       <r>   -11.9313     0.0000     0.0000 </r>
       <r>   -11.8688    -0.0000    -0.0000 </r>
       <r>   -11.8064    -0.0000    -0.0000 </r>
       <r>   -11.7439    -0.0000    -0.0000 </r>
       <r>   -11.6815    -0.0000    -0.0000 </r>
       <r>   -11.6190    -0.0000    -0.0000 </r>
       <r>   -11.5566    -0.0000    -0.0000 </r>
       <r>   -11.4941    -0.0000    -0.0000 </r>
       <r>   -11.4317    -0.0000    -0.0000 </r>
       <r>   -11.3692    -0.0000    -0.0000 </r>
       <r>   -11.3068    -0.0000    -0.0000 </r>
       <r>   -11.2443    -0.0000    -0.0000 </r>
       <r>   -11.1819    -0.0000    -0.0000 </r>
       <r>   -11.1194    -0.0000    -0.0000 </r>
       <r>   -11.0570    -0.0000    -0.0000 </r>
       <r>   -10.9945    -0.0000    -0.0000 </r>
       <r>   -10.9321    -0.0000    -0.0000 </r>
       <r>   -10.8696    -0.0000    -0.0000 </r>
       <r>   -10.8072    -0.0002    -0.0000 </r>
       <r>   -10.7447    -0.0011    -0.0001 </r>
       <r>   -10.6823    -0.0038    -0.0003 </r>
       <r>   -10.6198    -0.0104    -0.0010 </r>
       <r>   -10.5574    -0.0213    -0.0023 </r>
       <r>   -10.4949    -0.0284    -0.0041 </r>
       <r>   -10.4325    -0.0092    -0.0046 </r>
       <r>   -10.3700     0.0669    -0.0005 </r>
       <r>   -10.3076     0.2132     0.0128 </r>
       <r>   -10.2451     0.4073     0.0383 </r>
       <r>   -10.1827     0.6049     0.0761 </r>
       <r>   -10.1202     0.7717     0.1243 </r>
       <r>   -10.0578     0.8888     0.1798 </r>
       <r>    -9.9953     0.9377     0.2383 </r>
       <r>    -9.9329     0.9085     0.2951 </r>
       <r>    -9.8704     0.8256     0.3466 </r>
       <r>    -9.8079     0.7553     0.3938 </r>
       <r>    -9.7455     0.7718     0.4420 </r>
       <r>    -9.6830     0.8928     0.4977 </r>
       <r>    -9.6206     1.0395     0.5626 </r>
       <r>    -9.5581     1.0971     0.6312 </r>
       <r>    -9.4957     1.0294     0.6954 </r>
       <r>    -9.4332     0.9036     0.7519 </r>
       <r>    -9.3708     0.8007     0.8019 </r>
       <r>    -9.3083     0.7483     0.8486 </r>
       <r>    -9.2459     0.7542     0.8957 </r>
       <r>    -9.1834     0.8503     0.9488 </r>
       <r>    -9.1210     1.0531     1.0146 </r>
       <r>    -9.0585     1.3042     1.0960 </r>
       <r>    -8.9961     1.5063     1.1901 </r>
       <r>    -8.9336     1.6215     1.2914 </r>
       <r>    -8.8712     1.6930     1.3971 </r>
       <r>    -8.8087     1.7640     1.5073 </r>
       <r>    -8.7463     1.8154     1.6206 </r>
       <r>    -8.6838     1.8135     1.7339 </r>
       <r>    -8.6214     1.7952     1.8460 </r>
       <r>    -8.5589     1.8589     1.9621 </r>
       <r>    -8.4965     2.0637     2.0910 </r>
       <r>    -8.4340     2.3507     2.2378 </r>
       <r>    -8.3716     2.5761     2.3986 </r>
       <r>    -8.3091     2.6262     2.5627 </r>
       <r>    -8.2467     2.5109     2.7195 </r>
       <r>    -8.1842     2.3344     2.8652 </r>
       <r>    -8.1218     2.1740     3.0010 </r>
       <r>    -8.0593     2.0447     3.1287 </r>
       <r>    -7.9969     2.0329     3.2557 </r>
       <r>    -7.9344     2.3751     3.4040 </r>
       <r>    -7.8720     3.2398     3.6063 </r>
       <r>    -7.8095     4.4425     3.8838 </r>
       <r>    -7.7471     5.5787     4.2322 </r>
       <r>    -7.6846     6.4847     4.6371 </r>
       <r>    -7.6222     7.3581     5.0966 </r>
       <r>    -7.5597     8.3812     5.6201 </r>
       <r>    -7.4973     9.4962     6.2131 </r>
       <r>    -7.4348    10.6320     6.8771 </r>
       <r>    -7.3724    11.8468     7.6169 </r>
       <r>    -7.3099    13.0735     8.4334 </r>
       <r>    -7.2475    13.9450     9.3042 </r>
       <r>    -7.1850    14.1002    10.1848 </r>
       <r>    -7.1226    13.6231    11.0356 </r>
       <r>    -7.0601    13.0672    11.8516 </r>
       <r>    -6.9977    13.0391    12.6659 </r>
       <r>    -6.9352    13.7772    13.5263 </r>
       <r>    -6.8728    15.0878    14.4686 </r>
       <r>    -6.8103    16.6386    15.5077 </r>
       <r>    -6.7479    18.2845    16.6496 </r>
       <r>    -6.6854    20.0506    17.9017 </r>
       <r>    -6.6230    21.8155    19.2641 </r>
       <r>    -6.5605    23.1963    20.7128 </r>
       <r>    -6.4981    23.8629    22.2030 </r>
       <r>    -6.4356    23.8587    23.6930 </r>
       <r>    -6.3732    23.5044    25.1609 </r>
       <r>    -6.3107    23.0140    26.5981 </r>
       <r>    -6.2483    22.2642    27.9885 </r>
       <r>    -6.1858    20.9619    29.2976 </r>
       <r>    -6.1233    19.0145    30.4851 </r>
       <r>    -6.0609    16.6866    31.5272 </r>
       <r>    -5.9984    14.4360    32.4287 </r>
       <r>    -5.9360    12.7111    33.2226 </r>
       <r>    -5.8735    11.8943    33.9654 </r>
       <r>    -5.8111    12.2789    34.7322 </r>
       <r>    -5.7486    13.9346    35.6024 </r>
       <r>    -5.6862    16.5277    36.6346 </r>
       <r>    -5.6237    19.2947    37.8396 </r>
       <r>    -5.5613    21.2889    39.1691 </r>
       <r>    -5.4988    21.8625    40.5344 </r>
       <r>    -5.4364    21.1472    41.8551 </r>
       <r>    -5.3739    20.0755    43.1088 </r>
       <r>    -5.3115    19.7202    44.3403 </r>
       <r>    -5.2490    20.4509    45.6175 </r>
       <r>    -5.1866    21.6957    46.9724 </r>
       <r>    -5.1241    22.4625    48.3752 </r>
       <r>    -5.0617    22.0962    49.7552 </r>
       <r>    -4.9992    20.7403    51.0504 </r>
       <r>    -4.9368    19.2583    52.2531 </r>
       <r>    -4.8743    18.6477    53.4177 </r>
       <r>    -4.8119    19.3736    54.6276 </r>
       <r>    -4.7494    21.1681    55.9495 </r>
       <r>    -4.6870    23.3395    57.4071 </r>
       <r>    -4.6245    25.1980    58.9808 </r>
       <r>    -4.5621    26.3506    60.6264 </r>
       <r>    -4.4996    26.8254    62.3016 </r>
       <r>    -4.4372    26.9860    63.9869 </r>
       <r>    -4.3747    27.2942    65.6915 </r>
       <r>    -4.3123    28.0703    67.4445 </r>
       <r>    -4.2498    29.2886    69.2736 </r>
       <r>    -4.1874    30.4925    71.1779 </r>
       <r>    -4.1249    31.0802    73.1189 </r>
       <r>    -4.0625    30.9229    75.0500 </r>
       <r>    -4.0000    30.6738    76.9656 </r>
       <r>    -3.9376    31.2498    78.9172 </r>
       <r>    -3.8751    32.9044    80.9721 </r>
       <r>    -3.8127    34.8300    83.1473 </r>
       <r>    -3.7502    35.7024    85.3769 </r>
       <r>    -3.6878    34.7104    87.5446 </r>
       <r>    -3.6253    32.1882    89.5548 </r>
       <r>    -3.5629    29.2895    91.3839 </r>
       <r>    -3.5004    26.9813    93.0690 </r>
       <r>    -3.4380    25.2821    94.6478 </r>
       <r>    -3.3755    23.4508    96.1124 </r>
       <r>    -3.3131    20.9156    97.4186 </r>
       <r>    -3.2506    18.0448    98.5455 </r>
       <r>    -3.1882    16.0696    99.5490 </r>
       <r>    -3.1257    16.2563   100.5643 </r>
       <r>    -3.0633    18.9742   101.7492 </r>
       <r>    -3.0008    23.2837   103.2033 </r>
       <r>    -2.9384    27.3283   104.9100 </r>
       <r>    -2.8759    29.3875   106.7453 </r>
       <r>    -2.8135    28.9298   108.5519 </r>
       <r>    -2.7510    26.8241   110.2271 </r>
       <r>    -2.6886    24.5370   111.7595 </r>
       <r>    -2.6261    23.0694   113.2002 </r>
       <r>    -2.5637    22.5011   114.6054 </r>
       <r>    -2.5012    22.3446   116.0008 </r>
       <r>    -2.4387    22.2034   117.3875 </r>
       <r>    -2.3763    22.0426   118.7640 </r>
       <r>    -2.3138    21.9481   120.1347 </r>
       <r>    -2.2514    21.9309   121.5043 </r>
       <r>    -2.1889    22.1262   122.8861 </r>
       <r>    -2.1265    22.9693   124.3206 </r>
       <r>    -2.0640    24.8661   125.8735 </r>
       <r>    -2.0016    27.5941   127.5968 </r>
       <r>    -1.9391    30.1237   129.4780 </r>
       <r>    -1.8767    31.2254   131.4281 </r>
       <r>    -1.8142    30.4336   133.3287 </r>
       <r>    -1.7518    28.4215   135.1036 </r>
       <r>    -1.6893    26.3225   136.7475 </r>
       <r>    -1.6269    24.7232   138.2915 </r>
       <r>    -1.5644    23.4742   139.7574 </r>
       <r>    -1.5020    22.3745   141.1548 </r>
       <r>    -1.4395    21.6719   142.5082 </r>
       <r>    -1.3771    21.8102   143.8702 </r>
       <r>    -1.3146    23.0233   145.3081 </r>
       <r>    -1.2522    25.3028   146.8883 </r>
       <r>    -1.1897    28.4240   148.6634 </r>
       <r>    -1.1273    31.7604   150.6468 </r>
       <r>    -1.0648    34.3175   152.7900 </r>
       <r>    -1.0024    35.3082   154.9950 </r>
       <r>    -0.9399    34.7092   157.1626 </r>
       <r>    -0.8775    33.0310   159.2254 </r>
       <r>    -0.8150    30.5994   161.1364 </r>
       <r>    -0.7526    27.4507   162.8507 </r>
       <r>    -0.6901    23.9250   164.3449 </r>
       <r>    -0.6277    20.7593   165.6413 </r>
       <r>    -0.5652    18.3259   166.7858 </r>
       <r>    -0.5028    16.2273   167.7992 </r>
       <r>    -0.4403    13.9328   168.6693 </r>
       <r>    -0.3779    11.4861   169.3866 </r>
       <r>    -0.3154     9.3348   169.9696 </r>
       <r>    -0.2530     7.7536   170.4538 </r>
       <r>    -0.1905     6.7478   170.8752 </r>
       <r>    -0.1281     6.3187   171.2698 </r>
       <r>    -0.0656     6.4138   171.6704 </r>
       <r>    -0.0032     6.6405   172.0851 </r>
       <r>     0.0593     6.4232   172.4862 </r>
       <r>     0.1217     5.6012   172.8360 </r>
       <r>     0.1842     4.6610   173.1271 </r>
       <r>     0.2466     4.2181   173.3905 </r>
       <r>     0.3091     4.3666   173.6632 </r>
       <r>     0.3715     4.6540   173.9538 </r>
       <r>     0.4340     4.6369   174.2434 </r>
       <r>     0.4964     4.3280   174.5137 </r>
       <r>     0.5589     4.0931   174.7693 </r>
       <r>     0.6213     4.2516   175.0348 </r>
       <r>     0.6838     4.8415   175.3372 </r>
       <r>     0.7462     5.6456   175.6898 </r>
       <r>     0.8087     6.3136   176.0841 </r>
       <r>     0.8711     6.5308   176.4919 </r>
       <r>     0.9336     6.2375   176.8814 </r>
       <r>     0.9960     5.6910   177.2369 </r>
       <r>     1.0585     5.2087   177.5621 </r>
       <r>     1.1209     4.8577   177.8655 </r>
       <r>     1.1834     4.4842   178.1455 </r>
       <r>     1.2459     4.0214   178.3967 </r>
       <r>     1.3083     3.6627   178.6254 </r>
       <r>     1.3708     3.6938   178.8561 </r>
       <r>     1.4332     4.1858   179.1175 </r>
       <r>     1.4957     4.9062   179.4239 </r>
       <r>     1.5581     5.5547   179.7708 </r>
       <r>     1.6206     6.0159   180.1465 </r>
       <r>     1.6830     6.2867   180.5391 </r>
       <r>     1.7455     6.2472   180.9292 </r>
       <r>     1.8079     5.7261   181.2868 </r>
       <r>     1.8704     4.8350   181.5888 </r>
       <r>     1.9328     4.0732   181.8432 </r>
       <r>     1.9953     3.9773   182.0916 </r>
       <r>     2.0577     4.6476   182.3818 </r>
       <r>     2.1202     5.6103   182.7322 </r>
       <r>     2.1826     6.1759   183.1179 </r>
       <r>     2.2451     6.0139   183.4934 </r>
       <r>     2.3075     5.4094   183.8313 </r>
       <r>     2.3700     4.9200   184.1385 </r>
       <r>     2.4324     4.7661   184.4362 </r>
       <r>     2.4949     4.6291   184.7253 </r>
       <r>     2.5573     4.1241   184.9828 </r>
       <r>     2.6198     3.4048   185.1954 </r>
       <r>     2.6822     3.1420   185.3917 </r>
       <r>     2.7447     3.8543   185.6324 </r>
       <r>     2.8071     5.3084   185.9639 </r>
       <r>     2.8696     6.6035   186.3763 </r>
       <r>     2.9320     6.8695   186.8053 </r>
       <r>     2.9945     5.9504   187.1769 </r>
       <r>     3.0569     4.4671   187.4559 </r>
       <r>     3.1194     3.2702   187.6601 </r>
       <r>     3.1818     2.8494   187.8380 </r>
       <r>     3.2443     3.1462   188.0345 </r>
       <r>     3.3067     3.7406   188.2681 </r>
       <r>     3.3692     4.1859   188.5295 </r>
       <r>     3.4316     4.2817   188.7969 </r>
       <r>     3.4941     4.0847   189.0520 </r>
       <r>     3.5565     3.6878   189.2823 </r>
       <r>     3.6190     3.1359   189.4782 </r>
       <r>     3.6814     2.6359   189.6428 </r>
       <r>     3.7439     2.6351   189.8074 </r>
       <r>     3.8063     3.4092   190.0203 </r>
       <r>     3.8688     4.5813   190.3064 </r>
       <r>     3.9312     5.2827   190.6363 </r>
       <r>     3.9937     4.9116   190.9430 </r>
       <r>     4.0561     3.6686   191.1721 </r>
       <r>     4.1186     2.3096   191.3164 </r>
       <r>     4.1810     1.4707   191.4082 </r>
       <r>     4.2435     1.2857   191.4885 </r>
       <r>     4.3059     1.5026   191.5823 </r>
       <r>     4.3684     1.7703   191.6929 </r>
       <r>     4.4308     1.8218   191.8067 </r>
       <r>     4.4933     1.5554   191.9038 </r>
       <r>     4.5557     1.0570   191.9698 </r>
       <r>     4.6182     0.5286   192.0028 </r>
       <r>     4.6806     0.1471   192.0120 </r>
       <r>     4.7431    -0.0344   192.0099 </r>
       <r>     4.8055    -0.0721   192.0054 </r>
       <r>     4.8680    -0.0506   192.0022 </r>
       <r>     4.9305    -0.0239   192.0007 </r>
       <r>     4.9929    -0.0085   192.0002 </r>
       <r>     5.0554    -0.0024   192.0000 </r>
       <r>     5.1178    -0.0005   192.0000 </r>
       <r>     5.1803    -0.0001   192.0000 </r>
       <r>     5.2427    -0.0000   192.0000 </r>
       <r>     5.3052    -0.0000   192.0000 </r>
       <r>     5.3676    -0.0000   192.0000 </r>
       <r>     5.4301    -0.0000   192.0000 </r>
       <r>     5.4925    -0.0000   192.0000 </r>
       <r>     5.5550    -0.0000   192.0000 </r>
       <r>     5.6174    -0.0000   192.0000 </r>
       <r>     5.6799    -0.0000   192.0000 </r>
       <r>     5.7423    -0.0000   192.0000 </r>
       <r>     5.8048     0.0000   192.0000 </r>
       <r>     5.8672     0.0000   192.0000 </r>
       <r>     5.9297     0.0000   192.0000 </r>
       <r>     5.9921     0.0000   192.0000 </r>
       <r>     6.0546     0.0000   192.0000 </r>
       <r>     6.1170     0.0000   192.0000 </r>
       <r>     6.1795     0.0000   192.0000 </r>
       <r>     6.2419     0.0000   192.0000 </r>
       <r>     6.3044     0.0000   192.0000 </r>
       <r>     6.3668     0.0000   192.0000 </r>
       <r>     6.4293     0.0000   192.0000 </r>
       <r>     6.4917     0.0000   192.0000 </r>
      </set>
     </set>
    </array>
   </total>
  </dos>
 </calculation>
 <structure name="finalpos" >
  <crystal>
   <varray name="basis" >
    <v>       5.55785930       0.00000000       0.00000000 </v>
    <v>       2.77892965       4.81324734       0.00000000 </v>
    <v>       0.00000000       0.00000000      30.80695967 </v>
   </varray>
   <i name="volume">    824.12780743 </i>
   <varray name="rec_basis" >
    <v>       0.17992539      -0.10387997       0.00000000 </v>
    <v>       0.00000000       0.20775994       0.00000000 </v>
    <v>       0.00000000       0.00000000       0.03246020 </v>
   </varray>
  </crystal>
  <varray name="positions" >
   <v>       0.00000000       0.00000000       0.38952237 </v>
   <v>       0.50000000       0.00000000       0.38952237 </v>
   <v>       0.00000000       0.50000000       0.38952237 </v>
   <v>       0.50000000       0.50000000       0.38952237 </v>
   <v>       0.16666667       0.16666667       0.46468540 </v>
   <v>       0.66666667       0.16666667       0.46468540 </v>
   <v>       0.16666667       0.66666667       0.46468540 </v>
   <v>       0.66666667       0.66666667       0.46468540 </v>
   <v>       0.83333333       0.33333333       0.53920296 </v>
   <v>       0.83333333       0.83333333       0.53920296 </v>
   <v>       0.33333333       0.83333333       0.53920296 </v>
   <v>       0.00000000       0.00000000       0.61486043 </v>
   <v>       0.50000000       0.00000000       0.61486043 </v>
   <v>       0.00000000       0.50000000       0.61486043 </v>
   <v>       0.50000000       0.50000000       0.61486043 </v>
   <v>       0.33333333       0.33333333       0.53920296 </v>
  </varray>
  <varray name="selective"  type="logical" >
   <v type="logical" >  F  F  F </v>
   <v type="logical" >  F  F  F </v>
   <v type="logical" >  F  F  F </v>
   <v type="logical" >  F  F  F </v>
   <v type="logical" >  T  T  T </v>
   <v type="logical" >  T  T  T </v>
   <v type="logical" >  T  T  T </v>
   <v type="logical" >  T  T  T </v>
   <v type="logical" >  T  T  T </v>
   <v type="logical" >  T  T  T </v>
   <v type="logical" >  T  T  T </v>
   <v type="logical" >  T  T  T </v>
   <v type="logical" >  T  T  T </v>
   <v type="logical" >  T  T  T </v>
   <v type="logical" >  T  T  T </v>
   <v type="logical" >  T  T  T </v>
  </varray>
  <nose>
   <v>      -3.00000000       0.00000000       0.00010000       0.00010000 </v>
  </nose>
 </structure>
</modeling>
