   17   17    1    1
  0.4847811E+02  0.5557859E-09  0.5557859E-09  0.3080696E-08  0.5000000E-15
  1.000000000000000E-004
  CAR 
 unknown system                          
    161     52     96
 
  0.6250000E-01  0.6250000E-01  0.0000000E+00  0.1041667E-01
    1      -10.108376   1.000000
    2       -8.844161   1.000000
    3       -7.762130   1.000000
    4       -7.651200   1.000000
    5       -7.472124   1.000000
    6       -7.426827   1.000000
    7       -7.343979   1.000000
    8       -7.301576   1.000000
    9       -7.263807   1.000000
   10       -7.158560   1.000000
   11       -6.882883   1.000000
   12       -6.805515   1.000000
   13       -6.756221   1.000000
   14       -6.552593   1.000000
   15       -6.512279   1.000000
   16       -6.512143   1.000000
   17       -6.438850   1.000000
   18       -6.395449   1.000000
   19       -6.383381   1.000000
   20       -5.972292   1.000000
   21       -5.635030   1.000000
   22       -5.587187   1.000000
   23       -5.505577   1.000000
   24       -4.877489   1.000000
   25       -4.819785   1.000000
   26       -4.707684   1.000000
   27       -4.637646   1.000000
   28       -4.602546   1.000000
   29       -4.600146   1.000000
   30       -4.540044   1.000000
   31       -4.391319   1.000000
   32       -4.348069   1.000000
   33       -4.284828   1.000000
   34       -4.198142   1.000000
   35       -4.129250   1.000000
   36       -4.020877   1.000000
   37       -4.002574   1.000000
   38       -3.804313   1.000000
   39       -3.753932   1.000000
   40       -3.710831   1.000000
   41       -3.622537   1.000000
   42       -3.576277   1.000000
   43       -3.460993   1.000000
   44       -3.422746   1.000000
   45       -3.350357   1.000000
   46       -3.040719   1.000000
   47       -2.984558   1.000000
   48       -2.870722   1.000000
   49       -2.855034   1.000000
   50       -2.801797   1.000000
   51       -2.655661   1.000000
   52       -2.422344   1.000000
   53       -2.370912   1.000000
   54       -2.331351   1.000000
   55       -1.909394   1.000000
   56       -1.869160   1.000000
   57       -1.804486   1.000000
   58       -1.698197   1.000000
   59       -1.660402   1.000000
   60       -1.602430   1.000000
   61       -1.534441   1.000000
   62       -1.529332   1.000000
   63       -1.190042   1.003134
   64       -1.168973   1.004663
   65       -1.136390   1.008153
   66       -1.104714   1.013104
   67       -1.085582   1.016846
   68       -1.002730   1.034096
   69       -0.986331   1.035404
   70       -0.910459   1.004707
   71       -0.883286   0.969392
   72       -0.835689   0.864778
   73       -0.776595   0.661535
   74       -0.636469   0.126785
   75       -0.614741   0.073653
   76       -0.526749  -0.029883
   77       -0.520994  -0.031739
   78       -0.401800  -0.019469
   79       -0.336214  -0.007816
   80       -0.279844  -0.002822
   81       -0.228961  -0.000952
   82       -0.188730  -0.000363
   83       -0.187253  -0.000350
   84       -0.006920  -0.000002
   85        0.070930  -0.000000
   86        0.171684  -0.000000
   87        0.450763  -0.000000
   88        0.466099  -0.000000
   89        1.216054  -0.000000
   90        1.450279  -0.000000
   91        1.627680  -0.000000
   92        1.687149  -0.000000
   93        1.789585  -0.000000
   94        1.830361  -0.000000
   95        2.392902  -0.000000
   96        2.616943  -0.000000
 
  0.0000000E+00  0.6250000E-01  0.0000000E+00  0.2083333E-01
    1      -10.108379   1.000000
    2       -8.844177   1.000000
    3       -7.761834   1.000000
    4       -7.651092   1.000000
    5       -7.465457   1.000000
    6       -7.436586   1.000000
    7       -7.341835   1.000000
    8       -7.296994   1.000000
    9       -7.269892   1.000000
   10       -7.156441   1.000000
   11       -6.882231   1.000000
   12       -6.806091   1.000000
   13       -6.756062   1.000000
   14       -6.550662   1.000000
   15       -6.524468   1.000000
   16       -6.502208   1.000000
   17       -6.438371   1.000000
   18       -6.395308   1.000000
   19       -6.383305   1.000000
   20       -5.972695   1.000000
   21       -5.634626   1.000000
   22       -5.586995   1.000000
   23       -5.506784   1.000000
   24       -4.879395   1.000000
   25       -4.817124   1.000000
   26       -4.711916   1.000000
   27       -4.635728   1.000000
   28       -4.614842   1.000000
   29       -4.587700   1.000000
   30       -4.540693   1.000000
   31       -4.393151   1.000000
   32       -4.346121   1.000000
   33       -4.292722   1.000000
   34       -4.176676   1.000000
   35       -4.135573   1.000000
   36       -4.028067   1.000000
   37       -4.003144   1.000000
   38       -3.802763   1.000000
   39       -3.751158   1.000000
   40       -3.711580   1.000000
   41       -3.623904   1.000000
   42       -3.576069   1.000000
   43       -3.463415   1.000000
   44       -3.414545   1.000000
   45       -3.356022   1.000000
   46       -3.034177   1.000000
   47       -2.990979   1.000000
   48       -2.899974   1.000000
   49       -2.868076   1.000000
   50       -2.729539   1.000000
   51       -2.678995   1.000000
   52       -2.424174   1.000000
   53       -2.370981   1.000000
   54       -2.326150   1.000000
   55       -1.916269   1.000000
   56       -1.884582   1.000000
   57       -1.788504   1.000000
   58       -1.690310   1.000000
   59       -1.673251   1.000000
   60       -1.606852   1.000000
   61       -1.543218   1.000000
   62       -1.516319   1.000000
   63       -1.201600   1.002492
   64       -1.175781   1.004114
   65       -1.126002   1.009600
   66       -1.078356   1.018385
   67       -1.056092   1.023417
   68       -1.023182   1.030710
   69       -0.984329   1.035446
   70       -0.958291   1.032798
   71       -0.879577   0.963260
   72       -0.836583   0.867265
   73       -0.764677   0.613375
   74       -0.633625   0.119155
   75       -0.596960   0.038997
   76       -0.569493   0.000286
   77       -0.496257  -0.035407
   78       -0.406439  -0.020508
   79       -0.326488  -0.006652
   80       -0.284084  -0.003068
   81       -0.245541  -0.001380
   82       -0.189077  -0.000366
   83       -0.168379  -0.000215
   84       -0.009167  -0.000002
   85        0.067520  -0.000000
   86        0.173963  -0.000000
   87        0.448140  -0.000000
   88        0.473958  -0.000000
   89        1.214915  -0.000000
   90        1.456885  -0.000000
   91        1.602809  -0.000000
   92        1.709315  -0.000000
   93        1.784631  -0.000000
   94        1.824467  -0.000000
   95        2.445803  -0.000000
   96        2.581519  -0.000000
 
  0.1875000E+00  0.6250000E-01  0.0000000E+00  0.2083333E-01
    1       -9.905384   1.000000
    2       -8.644958   1.000000
    3       -7.563640   1.000000
    4       -7.457405   1.000000
    5       -7.419856   1.000000
    6       -7.335340   1.000000
    7       -7.219914   1.000000
    8       -7.188277   1.000000
    9       -7.144045   1.000000
   10       -7.016264   1.000000
   11       -6.786710   1.000000
   12       -6.704393   1.000000
   13       -6.667586   1.000000
   14       -6.507310   1.000000
   15       -6.435393   1.000000
   16       -6.327925   1.000000
   17       -6.317112   1.000000
   18       -6.267879   1.000000
   19       -6.194819   1.000000
   20       -5.921776   1.000000
   21       -5.574173   1.000000
   22       -5.529704   1.000000
   23       -5.456530   1.000000
   24       -4.880120   1.000000
   25       -4.838657   1.000000
   26       -4.746256   1.000000
   27       -4.707655   1.000000
   28       -4.609344   1.000000
   29       -4.549647   1.000000
   30       -4.509237   1.000000
   31       -4.464634   1.000000
   32       -4.392093   1.000000
   33       -4.221563   1.000000
   34       -4.095669   1.000000
   35       -4.067213   1.000000
   36       -4.003328   1.000000
   37       -3.949934   1.000000
   38       -3.865359   1.000000
   39       -3.809803   1.000000
   40       -3.745408   1.000000
   41       -3.617343   1.000000
   42       -3.588659   1.000000
   43       -3.542688   1.000000
   44       -3.524956   1.000000
   45       -3.427986   1.000000
   46       -3.343570   1.000000
   47       -3.230515   1.000000
   48       -3.091627   1.000000
   49       -2.923518   1.000000
   50       -2.747322   1.000000
   51       -2.690244   1.000000
   52       -2.602345   1.000000
   53       -2.456302   1.000000
   54       -2.411486   1.000000
   55       -2.028503   1.000000
   56       -1.955316   1.000000
   57       -1.926657   1.000000
   58       -1.853381   1.000000
   59       -1.818791   1.000000
   60       -1.762543   1.000000
   61       -1.757195   1.000000
   62       -1.676605   1.000000
   63       -1.579176   1.000000
   64       -1.555092   1.000000
   65       -1.504995   1.000000
   66       -1.421845   1.000007
   67       -1.292367   1.000313
   68       -1.204678   1.002341
   69       -1.136346   1.008159
   70       -1.064110   1.021570
   71       -1.030898   1.029119
   72       -0.976247   1.035298
   73       -0.945408   1.028715
   74       -0.858704   0.922456
   75       -0.801563   0.755882
   76       -0.737562   0.499800
   77       -0.730731   0.470914
   78       -0.680459   0.268773
   79       -0.660623   0.199457
   80       -0.603718   0.051244
   81       -0.526398  -0.030009
   82       -0.442386  -0.028702
   83       -0.339415  -0.008230
   84       -0.274394  -0.002531
   85       -0.114251  -0.000048
   86        0.238059  -0.000000
   87        0.325074  -0.000000
   88        0.571319  -0.000000
   89        0.888337  -0.000000
   90        1.094491  -0.000000
   91        1.335537  -0.000000
   92        1.635219  -0.000000
   93        2.180265  -0.000000
   94        2.508071  -0.000000
   95        2.776941  -0.000000
   96        3.060694  -0.000000
 
  0.1250000E+00  0.1875000E+00  0.0000000E+00  0.2083333E-01
    1       -9.905376   1.000000
    2       -8.644891   1.000000
    3       -7.566149   1.000000
    4       -7.457639   1.000000
    5       -7.422916   1.000000
    6       -7.325086   1.000000
    7       -7.222042   1.000000
    8       -7.196275   1.000000
    9       -7.132346   1.000000
   10       -7.023209   1.000000
   11       -6.788120   1.000000
   12       -6.701966   1.000000
   13       -6.669718   1.000000
   14       -6.501953   1.000000
   15       -6.438741   1.000000
   16       -6.334070   1.000000
   17       -6.314238   1.000000
   18       -6.266301   1.000000
   19       -6.195485   1.000000
   20       -5.920610   1.000000
   21       -5.575124   1.000000
   22       -5.530447   1.000000
   23       -5.452175   1.000000
   24       -4.875635   1.000000
   25       -4.843084   1.000000
   26       -4.740880   1.000000
   27       -4.703542   1.000000
   28       -4.598471   1.000000
   29       -4.547813   1.000000
   30       -4.519524   1.000000
   31       -4.476051   1.000000
   32       -4.387238   1.000000
   33       -4.227021   1.000000
   34       -4.099976   1.000000
   35       -4.078241   1.000000
   36       -3.983195   1.000000
   37       -3.950538   1.000000
   38       -3.862915   1.000000
   39       -3.817110   1.000000
   40       -3.749049   1.000000
   41       -3.607724   1.000000
   42       -3.592371   1.000000
   43       -3.560404   1.000000
   44       -3.513886   1.000000
   45       -3.425366   1.000000
   46       -3.344297   1.000000
   47       -3.213374   1.000000
   48       -3.093669   1.000000
   49       -2.934062   1.000000
   50       -2.790368   1.000000
   51       -2.658504   1.000000
   52       -2.610105   1.000000
   53       -2.449381   1.000000
   54       -2.411885   1.000000
   55       -2.035328   1.000000
   56       -1.955702   1.000000
   57       -1.918530   1.000000
   58       -1.887750   1.000000
   59       -1.812957   1.000000
   60       -1.748821   1.000000
   61       -1.708853   1.000000
   62       -1.696324   1.000000
   63       -1.584707   1.000000
   64       -1.538563   1.000000
   65       -1.504348   1.000000
   66       -1.435863   1.000005
   67       -1.288117   1.000348
   68       -1.208888   1.002147
   69       -1.148513   1.006677
   70       -1.053501   1.024017
   71       -1.041645   1.026743
   72       -0.965230   1.034160
   73       -0.935060   1.023753
   74       -0.837330   0.869328
   75       -0.806809   0.774282
   76       -0.770565   0.637369
   77       -0.715016   0.405073
   78       -0.697155   0.332643
   79       -0.666623   0.219577
   80       -0.595001   0.035655
   81       -0.535416  -0.026228
   82       -0.408607  -0.020999
   83       -0.331949  -0.007288
   84       -0.297940  -0.004000
   85       -0.110517  -0.000043
   86        0.243237  -0.000000
   87        0.318264  -0.000000
   88        0.571963  -0.000000
   89        0.877352  -0.000000
   90        1.081947  -0.000000
   91        1.349288  -0.000000
   92        1.633374  -0.000000
   93        2.182869  -0.000000
   94        2.493739  -0.000000
   95        2.780657  -0.000000
   96        3.070204  -0.000000
 
 -0.6250000E-01  0.1250000E+00  0.0000000E+00  0.2083333E-01
    1       -9.905398   1.000000
    2       -8.645044   1.000000
    3       -7.561863   1.000000
    4       -7.456894   1.000000
    5       -7.413677   1.000000
    6       -7.345237   1.000000
    7       -7.217909   1.000000
    8       -7.184230   1.000000
    9       -7.154142   1.000000
   10       -7.011412   1.000000
   11       -6.780441   1.000000
   12       -6.709500   1.000000
   13       -6.666303   1.000000
   14       -6.506615   1.000000
   15       -6.438265   1.000000
   16       -6.332490   1.000000
   17       -6.309168   1.000000
   18       -6.270826   1.000000
   19       -6.190183   1.000000
   20       -5.924391   1.000000
   21       -5.574379   1.000000
   22       -5.526813   1.000000
   23       -5.462081   1.000000
   24       -4.902487   1.000000
   25       -4.796821   1.000000
   26       -4.777881   1.000000
   27       -4.720035   1.000000
   28       -4.611202   1.000000
   29       -4.538983   1.000000
   30       -4.520752   1.000000
   31       -4.449965   1.000000
   32       -4.381497   1.000000
   33       -4.216865   1.000000
   34       -4.081478   1.000000
   35       -4.067500   1.000000
   36       -4.026999   1.000000
   37       -3.961447   1.000000
   38       -3.855827   1.000000
   39       -3.793349   1.000000
   40       -3.743064   1.000000
   41       -3.633697   1.000000
   42       -3.574245   1.000000
   43       -3.550173   1.000000
   44       -3.529690   1.000000
   45       -3.427995   1.000000
   46       -3.352459   1.000000
   47       -3.218581   1.000000
   48       -3.108825   1.000000
   49       -2.848729   1.000000
   50       -2.790072   1.000000
   51       -2.678489   1.000000
   52       -2.597741   1.000000
   53       -2.468165   1.000000
   54       -2.416747   1.000000
   55       -2.068645   1.000000
   56       -1.919899   1.000000
   57       -1.885289   1.000000
   58       -1.853538   1.000000
   59       -1.822454   1.000000
   60       -1.806316   1.000000
   61       -1.731356   1.000000
   62       -1.674444   1.000000
   63       -1.604559   1.000000
   64       -1.553046   1.000000
   65       -1.510077   1.000000
   66       -1.417767   1.000008
   67       -1.251867   1.000837
   68       -1.213272   1.001960
   69       -1.152133   1.006278
   70       -1.129841   1.009045
   71       -1.026816   1.029976
   72       -0.988536   1.035326
   73       -0.922523   1.015424
   74       -0.866680   0.939327
   75       -0.825866   0.836166
   76       -0.736013   0.493243
   77       -0.722231   0.435138
   78       -0.680067   0.267330
   79       -0.636719   0.127467
   80       -0.572616   0.003837
   81       -0.493846  -0.035452
   82       -0.459961  -0.032193
   83       -0.357417  -0.010864
   84       -0.285938  -0.003181
   85       -0.110054  -0.000042
   86        0.238453  -0.000000
   87        0.329739  -0.000000
   88        0.574924  -0.000000
   89        0.883500  -0.000000
   90        1.103341  -0.000000
   91        1.335590  -0.000000
   92        1.635461  -0.000000
   93        2.179789  -0.000000
   94        2.499573  -0.000000
   95        2.793948  -0.000000
   96        3.080090  -0.000000
 
  0.3125000E+00  0.6250000E-01  0.0000000E+00  0.2083333E-01
    1       -9.454143   1.000000
    2       -8.216077   1.000000
    3       -7.491101   1.000000
    4       -7.160933   1.000000
    5       -7.106530   1.000000
    6       -7.052979   1.000000
    7       -7.029743   1.000000
    8       -6.900336   1.000000
    9       -6.865677   1.000000
   10       -6.718720   1.000000
   11       -6.594588   1.000000
   12       -6.511805   1.000000
   13       -6.438131   1.000000
   14       -6.412198   1.000000
   15       -6.192359   1.000000
   16       -6.150064   1.000000
   17       -5.997827   1.000000
   18       -5.949478   1.000000
   19       -5.837514   1.000000
   20       -5.723811   1.000000
   21       -5.448010   1.000000
   22       -5.404398   1.000000
   23       -5.358536   1.000000
   24       -5.004494   1.000000
   25       -4.939144   1.000000
   26       -4.912625   1.000000
   27       -4.823874   1.000000
   28       -4.741528   1.000000
   29       -4.610795   1.000000
   30       -4.484003   1.000000
   31       -4.382055   1.000000
   32       -4.264127   1.000000
   33       -4.146736   1.000000
   34       -4.117031   1.000000
   35       -4.062251   1.000000
   36       -4.042320   1.000000
   37       -3.982093   1.000000
   38       -3.949488   1.000000
   39       -3.884172   1.000000
   40       -3.850204   1.000000
   41       -3.797398   1.000000
   42       -3.734518   1.000000
   43       -3.702886   1.000000
   44       -3.649037   1.000000
   45       -3.591529   1.000000
   46       -3.430586   1.000000
   47       -3.284457   1.000000
   48       -3.230223   1.000000
   49       -3.119236   1.000000
   50       -2.907747   1.000000
   51       -2.849293   1.000000
   52       -2.760693   1.000000
   53       -2.676869   1.000000
   54       -2.640507   1.000000
   55       -2.569878   1.000000
   56       -2.515236   1.000000
   57       -2.474765   1.000000
   58       -2.386033   1.000000
   59       -2.355295   1.000000
   60       -2.263352   1.000000
   61       -2.250879   1.000000
   62       -2.060947   1.000000
   63       -2.009979   1.000000
   64       -1.941264   1.000000
   65       -1.855539   1.000000
   66       -1.792714   1.000000
   67       -1.675785   1.000000
   68       -1.591441   1.000000
   69       -1.532546   1.000000
   70       -1.441342   1.000004
   71       -1.419627   1.000008
   72       -1.340766   1.000085
   73       -1.281810   1.000408
   74       -1.205061   1.002323
   75       -1.154969   1.005979
   76       -1.050041   1.024817
   77       -1.016748   1.031929
   78       -0.897635   0.990080
   79       -0.870286   0.946433
   80       -0.811000   0.788575
   81       -0.697457   0.333837
   82       -0.647256   0.157531
   83       -0.616319   0.077110
   84       -0.505986  -0.034710
   85       -0.428473  -0.025577
   86       -0.028907  -0.000003
   87        0.362437  -0.000000
   88        0.587911  -0.000000
   89        1.048804  -0.000000
   90        1.465525  -0.000000
   91        1.747954  -0.000000
   92        1.968547  -0.000000
   93        2.369698  -0.000000
   94        2.469783  -0.000000
   95        3.219823  -0.000000
   96        3.576299  -0.000000
 
  0.2500000E+00  0.3125000E+00  0.0000000E+00  0.2083333E-01
    1       -9.454092   1.000000
    2       -8.215229   1.000000
    3       -7.497594   1.000000
    4       -7.171743   1.000000
    5       -7.081614   1.000000
    6       -7.056975   1.000000
    7       -7.032531   1.000000
    8       -6.894266   1.000000
    9       -6.850932   1.000000
   10       -6.757003   1.000000
   11       -6.591099   1.000000
   12       -6.504772   1.000000
   13       -6.447735   1.000000
   14       -6.394813   1.000000
   15       -6.202671   1.000000
   16       -6.154924   1.000000
   17       -6.021504   1.000000
   18       -5.920256   1.000000
   19       -5.839388   1.000000
   20       -5.724583   1.000000
   21       -5.439001   1.000000
   22       -5.417292   1.000000
   23       -5.329903   1.000000
   24       -5.002793   1.000000
   25       -4.952795   1.000000
   26       -4.860359   1.000000
   27       -4.826756   1.000000
   28       -4.723375   1.000000
   29       -4.619757   1.000000
   30       -4.494639   1.000000
   31       -4.407717   1.000000
   32       -4.288593   1.000000
   33       -4.157449   1.000000
   34       -4.113481   1.000000
   35       -4.062832   1.000000
   36       -4.042300   1.000000
   37       -3.984625   1.000000
   38       -3.952492   1.000000
   39       -3.897531   1.000000
   40       -3.853652   1.000000
   41       -3.751040   1.000000
   42       -3.737720   1.000000
   43       -3.685507   1.000000
   44       -3.666074   1.000000
   45       -3.564853   1.000000
   46       -3.484507   1.000000
   47       -3.292443   1.000000
   48       -3.263119   1.000000
   49       -3.116963   1.000000
   50       -2.883802   1.000000
   51       -2.833499   1.000000
   52       -2.733352   1.000000
   53       -2.665146   1.000000
   54       -2.652486   1.000000
   55       -2.578401   1.000000
   56       -2.543657   1.000000
   57       -2.493895   1.000000
   58       -2.403933   1.000000
   59       -2.366612   1.000000
   60       -2.266870   1.000000
   61       -2.216993   1.000000
   62       -2.056207   1.000000
   63       -2.011955   1.000000
   64       -1.947445   1.000000
   65       -1.876454   1.000000
   66       -1.785968   1.000000
   67       -1.653997   1.000000
   68       -1.562435   1.000000
   69       -1.486077   1.000001
   70       -1.461549   1.000002
   71       -1.397673   1.000016
   72       -1.342413   1.000082
   73       -1.259592   1.000699
   74       -1.204661   1.002342
   75       -1.141006   1.007565
   76       -1.077339   1.018606
   77       -1.018986   1.031518
   78       -0.930893   1.021282
   79       -0.848978   0.899708
   80       -0.812564   0.793814
   81       -0.780922   0.678591
   82       -0.642780   0.144429
   83       -0.571883   0.002985
   84       -0.503781  -0.034945
   85       -0.405378  -0.020269
   86       -0.027562  -0.000003
   87        0.360636  -0.000000
   88        0.578137  -0.000000
   89        1.039959  -0.000000
   90        1.419314  -0.000000
   91        1.753466  -0.000000
   92        1.995312  -0.000000
   93        2.359768  -0.000000
   94        2.457568  -0.000000
   95        3.223641  -0.000000
   96        3.613271  -0.000000
 
 -0.6250000E-01  0.2500000E+00  0.0000000E+00  0.2083333E-01
    1       -9.454178   1.000000
    2       -8.216255   1.000000
    3       -7.490697   1.000000
    4       -7.166384   1.000000
    5       -7.082974   1.000000
    6       -7.059838   1.000000
    7       -7.038891   1.000000
    8       -6.904870   1.000000
    9       -6.865085   1.000000
   10       -6.723682   1.000000
   11       -6.578838   1.000000
   12       -6.509009   1.000000
   13       -6.456019   1.000000
   14       -6.399450   1.000000
   15       -6.200148   1.000000
   16       -6.151363   1.000000
   17       -5.992274   1.000000
   18       -5.952356   1.000000
   19       -5.811850   1.000000
   20       -5.743565   1.000000
   21       -5.457029   1.000000
   22       -5.393035   1.000000
   23       -5.366158   1.000000
   24       -5.027747   1.000000
   25       -4.945184   1.000000
   26       -4.886796   1.000000
   27       -4.853165   1.000000
   28       -4.739319   1.000000
   29       -4.608673   1.000000
   30       -4.470990   1.000000
   31       -4.383638   1.000000
   32       -4.244094   1.000000
   33       -4.159003   1.000000
   34       -4.112986   1.000000
   35       -4.096940   1.000000
   36       -4.036172   1.000000
   37       -3.997766   1.000000
   38       -3.920639   1.000000
   39       -3.877680   1.000000
   40       -3.847203   1.000000
   41       -3.763898   1.000000
   42       -3.728009   1.000000
   43       -3.712411   1.000000
   44       -3.667992   1.000000
   45       -3.599579   1.000000
   46       -3.425991   1.000000
   47       -3.279351   1.000000
   48       -3.190735   1.000000
   49       -3.117698   1.000000
   50       -2.914036   1.000000
   51       -2.847588   1.000000
   52       -2.787208   1.000000
   53       -2.687713   1.000000
   54       -2.634226   1.000000
   55       -2.562947   1.000000
   56       -2.506455   1.000000
   57       -2.482886   1.000000
   58       -2.402897   1.000000
   59       -2.343448   1.000000
   60       -2.263727   1.000000
   61       -2.251125   1.000000
   62       -2.063928   1.000000
   63       -2.005193   1.000000
   64       -1.922986   1.000000
   65       -1.873796   1.000000
   66       -1.770986   1.000000
   67       -1.710070   1.000000
   68       -1.608943   1.000000
   69       -1.549154   1.000000
   70       -1.469445   1.000001
   71       -1.405704   1.000012
   72       -1.345647   1.000074
   73       -1.236547   1.001186
   74       -1.221496   1.001647
   75       -1.095593   1.014822
   76       -1.074433   1.019245
   77       -1.026191   1.030104
   78       -0.898260   0.990875
   79       -0.864679   0.935246
   80       -0.820000   0.817987
   81       -0.695436   0.325874
   82       -0.664381   0.211970
   83       -0.609069   0.061743
   84       -0.499682  -0.035259
   85       -0.425844  -0.024971
   86       -0.029204  -0.000003
   87        0.363457  -0.000000
   88        0.590195  -0.000000
   89        1.042267  -0.000000
   90        1.467975  -0.000000
   91        1.743137  -0.000000
   92        1.993594  -0.000000
   93        2.376370  -0.000000
   94        2.451587  -0.000000
   95        3.219628  -0.000000
   96        3.566583  -0.000000
 
  0.4375000E+00  0.6250000E-01  0.0000000E+00  0.2083333E-01
    1       -8.819700   1.000000
    2       -7.850675   1.000000
    3       -7.654191   1.000000
    4       -7.106370   1.000000
    5       -6.773534   1.000000
    6       -6.749449   1.000000
    7       -6.617674   1.000000
    8       -6.529096   1.000000
    9       -6.492369   1.000000
   10       -6.458778   1.000000
   11       -6.388080   1.000000
   12       -6.264391   1.000000
   13       -6.150939   1.000000
   14       -6.030101   1.000000
   15       -6.006413   1.000000
   16       -5.948121   1.000000
   17       -5.814122   1.000000
   18       -5.670708   1.000000
   19       -5.461239   1.000000
   20       -5.378606   1.000000
   21       -5.355986   1.000000
   22       -5.263564   1.000000
   23       -5.214597   1.000000
   24       -5.133197   1.000000
   25       -5.081562   1.000000
   26       -5.015976   1.000000
   27       -4.951488   1.000000
   28       -4.859719   1.000000
   29       -4.613154   1.000000
   30       -4.578934   1.000000
   31       -4.572365   1.000000
   32       -4.494925   1.000000
   33       -4.387862   1.000000
   34       -4.298173   1.000000
   35       -4.226549   1.000000
   36       -4.184562   1.000000
   37       -4.049868   1.000000
   38       -3.972126   1.000000
   39       -3.941749   1.000000
   40       -3.912776   1.000000
   41       -3.756061   1.000000
   42       -3.714210   1.000000
   43       -3.674603   1.000000
   44       -3.613730   1.000000
   45       -3.594499   1.000000
   46       -3.530207   1.000000
   47       -3.471319   1.000000
   48       -3.404357   1.000000
   49       -3.339795   1.000000
   50       -3.303761   1.000000
   51       -3.280740   1.000000
   52       -3.206352   1.000000
   53       -3.128287   1.000000
   54       -3.092035   1.000000
   55       -2.939010   1.000000
   56       -2.889449   1.000000
   57       -2.824052   1.000000
   58       -2.740381   1.000000
   59       -2.663579   1.000000
   60       -2.603235   1.000000
   61       -2.424868   1.000000
   62       -2.341188   1.000000
   63       -2.285343   1.000000
   64       -2.228803   1.000000
   65       -2.186256   1.000000
   66       -2.161123   1.000000
   67       -2.016668   1.000000
   68       -1.962749   1.000000
   69       -1.886792   1.000000
   70       -1.829663   1.000000
   71       -1.776298   1.000000
   72       -1.704186   1.000000
   73       -1.542552   1.000000
   74       -1.459866   1.000002
   75       -1.357350   1.000053
   76       -1.235809   1.001205
   77       -1.149527   1.006563
   78       -1.103229   1.013375
   79       -0.947155   1.029398
   80       -0.890084   0.979785
   81       -0.777460   0.664966
   82       -0.689349   0.302235
   83       -0.641151   0.139781
   84       -0.569440   0.000228
   85       -0.441484  -0.028506
   86       -0.269744  -0.002303
   87        0.616844  -0.000000
   88        0.723772  -0.000000
   89        1.210851  -0.000000
   90        1.627682  -0.000000
   91        1.830011  -0.000000
   92        2.134282  -0.000000
   93        2.550219  -0.000000
   94        2.626191  -0.000000
   95        3.507600  -0.000000
   96        3.783676  -0.000000
 
  0.3750000E+00  0.4375000E+00  0.0000000E+00  0.2083333E-01
    1       -8.819500   1.000000
    2       -7.841191   1.000000
    3       -7.666515   1.000000
    4       -7.113049   1.000000
    5       -6.803619   1.000000
    6       -6.697358   1.000000
    7       -6.615124   1.000000
    8       -6.559029   1.000000
    9       -6.490708   1.000000
   10       -6.445122   1.000000
   11       -6.407210   1.000000
   12       -6.251465   1.000000
   13       -6.143998   1.000000
   14       -6.066464   1.000000
   15       -6.009907   1.000000
   16       -5.945504   1.000000
   17       -5.837859   1.000000
   18       -5.619882   1.000000
   19       -5.470937   1.000000
   20       -5.390117   1.000000