       N       E                     dE             d eps       ncg     rms          rms(c)
DAV:   1     0.975978994650E+03    0.97598E+03   -0.55510E+04  3840   0.101E+03
DAV:   2    -0.398348274643E+02   -0.10158E+04   -0.98742E+03  5616   0.248E+02
DAV:   3    -0.974690281277E+02   -0.57634E+02   -0.55955E+02  4752   0.594E+01
DAV:   4    -0.986822806660E+02   -0.12133E+01   -0.12072E+01  5448   0.984E+00
DAV:   5    -0.987137042543E+02   -0.31424E-01   -0.31396E-01  5736   0.125E+00    0.418E+01
DAV:   6    -0.948442591884E+02    0.38694E+01   -0.31779E+01  4704   0.212E+01    0.301E+01
DAV:   7    -0.118899058935E+03   -0.24055E+02   -0.16876E+02  4992   0.590E+01    0.430E+01
DAV:   8    -0.964946719660E+02    0.22404E+02   -0.83639E+01  5424   0.303E+01    0.188E+01
DAV:   9    -0.103002599151E+03   -0.65079E+01   -0.91178E+01  5760   0.407E+01    0.268E+01
DAV:  10    -0.961710250609E+02    0.68316E+01   -0.47081E+01  5760   0.308E+01    0.192E+01
DAV:  11    -0.944794832834E+02    0.16915E+01   -0.48676E+01  5688   0.201E+01    0.149E+01
DAV:  12    -0.928583446277E+02    0.16211E+01   -0.15540E+01  4944   0.974E+00    0.732E+00
DAV:  13    -0.925220784456E+02    0.33627E+00   -0.16508E+00  5376   0.408E+00    0.392E+00
DAV:  14    -0.924649718352E+02    0.57107E-01   -0.53546E-01  5160   0.281E+00    0.317E+00
DAV:  15    -0.924413158637E+02    0.23656E-01   -0.46306E-01  4464   0.250E+00    0.217E+00
DAV:  16    -0.924176087688E+02    0.23707E-01   -0.27911E-01  4824   0.181E+00    0.147E+00
DAV:  17    -0.924111003581E+02    0.65084E-02   -0.43767E-02  4368   0.811E-01    0.104E+00
DAV:  18    -0.924042413795E+02    0.68590E-02   -0.47192E-02  5664   0.738E-01    0.654E-01
DAV:  19    -0.924033735315E+02    0.86785E-03   -0.48323E-02  4680   0.694E-01    0.585E-01
DAV:  20    -0.924015761297E+02    0.17974E-02   -0.59920E-03  4656   0.264E-01    0.275E-01
DAV:  21    -0.924011953943E+02    0.38074E-03   -0.19440E-03  5424   0.139E-01    0.122E-01
DAV:  22    -0.924010842996E+02    0.11109E-03   -0.43806E-04  4752   0.756E-02    0.362E-02
DAV:  23    -0.924010902799E+02   -0.59802E-05   -0.79962E-05  3576   0.302E-02
   1 F= -.92401055E+02 E0= -.92388006E+02  d E =-.391468E-01
