<?xml version="1.0" encoding="ISO-8859-1"?>
<modeling>
 <generator>
  <i name="program" type="string">vasp </i>
  <i name="version" type="string">5.4.4.18Apr17-6-g9f103f2a35  </i>
  <i name="subversion" type="string">(build Apr 28 2017 10:53:45) complex            parallel </i>
  <i name="platform" type="string">LinuxIFC </i>
  <i name="date" type="string">2020 02 17 </i>
  <i name="time" type="string">09:19:49 </i>
 </generator>
 <incar>
  <i type="string" name="PREC">normal</i>
  <i type="int" name="ISPIN">     1</i>
  <i type="int" name="IBRION">     2</i>
  <i name="EDIFF">      0.00001000</i>
  <i name="EDIFFG">     -0.05000000</i>
  <i type="int" name="NSW">     0</i>
  <i name="ENCUT">    350.00000000</i>
  <i type="logical" name="LWAVE"> F  </i>
  <i type="logical" name="LCHARG"> F  </i>
  <v type="int" name="KPOINT_BSE">    -1     0     0     0</v>
  <i type="string" name="GGA"> PE</i>
  <i type="int" name="IDIPOL">     3</i>
 </incar>
 <structure name="primitive_cell" >
  <crystal>
   <varray name="basis" >
    <v>       5.55785930       0.00000000       0.00000000 </v>
    <v>       2.77892965       4.81324734       0.00000000 </v>
    <v>       0.00000000       0.00000000      30.80695967 </v>
   </varray>
   <i name="volume">    824.12780743 </i>
   <varray name="rec_basis" >
    <v>       0.17992539      -0.10387997       0.00000000 </v>
    <v>       0.00000000       0.20775994       0.00000000 </v>
    <v>       0.00000000       0.00000000       0.03246020 </v>
   </varray>
  </crystal>
  <varray name="positions" >
   <v>       0.00000000       0.00000000       0.38952237 </v>
   <v>       0.00000000      -0.50000000       0.38952237 </v>
   <v>      -0.50000000      -0.50000000       0.38952237 </v>
   <v>      -0.50000000       0.00000000       0.38952237 </v>
   <v>       0.16666667       0.16666667       0.46468540 </v>
   <v>       0.16666667      -0.33333333       0.46468540 </v>
   <v>      -0.33333333       0.16666667       0.46468540 </v>
   <v>      -0.33333333      -0.33333333       0.46468540 </v>
   <v>      -0.16666667      -0.16666667      -0.46079704 </v>
   <v>      -0.16666667       0.33333333      -0.46079704 </v>
   <v>       0.33333333      -0.16666667      -0.46079704 </v>
   <v>       0.33333333       0.33333333      -0.46079704 </v>
   <v>       0.00000000       0.00000000      -0.38513957 </v>
   <v>      -0.50000000       0.00000000      -0.38513957 </v>
   <v>       0.00000000      -0.50000000      -0.38513957 </v>
   <v>      -0.50000000      -0.50000000      -0.38513957 </v>
  </varray>
 </structure>
 <varray name="primitive_index" >
  <v type="int" >        1 </v>
  <v type="int" >        3 </v>
  <v type="int" >        4 </v>
  <v type="int" >        2 </v>
  <v type="int" >        5 </v>
  <v type="int" >        7 </v>
  <v type="int" >        6 </v>
  <v type="int" >        8 </v>
  <v type="int" >       10 </v>
  <v type="int" >        9 </v>
  <v type="int" >       11 </v>
  <v type="int" >       16 </v>
  <v type="int" >       12 </v>
  <v type="int" >       13 </v>
  <v type="int" >       14 </v>
  <v type="int" >       15 </v>
 </varray>
 <kpoints>
  <generation param="Monkhorst-Pack">
   <v type="int" name="divisions">       8        8        1 </v>
   <v name="usershift">      0.00000000       0.00000000       0.00000000 </v>
   <v name="genvec1">      0.12500000       0.00000000       0.00000000 </v>
   <v name="genvec2">      0.00000000       0.12500000       0.00000000 </v>
   <v name="genvec3">      0.00000000       0.00000000       1.00000000 </v>
   <v name="shift">      0.50000000       0.50000000       0.00000000 </v>
  </generation>
  <varray name="kpointlist" >
   <v>       0.06250000       0.06250000       0.00000000 </v>
   <v>       0.18750000       0.06250000       0.00000000 </v>
   <v>       0.31250000       0.06250000       0.00000000 </v>
   <v>       0.43750000       0.06250000       0.00000000 </v>
   <v>      -0.43750000       0.06250000       0.00000000 </v>
   <v>      -0.31250000       0.06250000       0.00000000 </v>
   <v>      -0.18750000       0.06250000       0.00000000 </v>
   <v>      -0.06250000       0.06250000       0.00000000 </v>
   <v>       0.18750000       0.18750000       0.00000000 </v>
   <v>       0.31250000       0.18750000       0.00000000 </v>
   <v>       0.43750000       0.18750000       0.00000000 </v>
   <v>      -0.43750000       0.18750000       0.00000000 </v>
   <v>      -0.31250000       0.18750000       0.00000000 </v>
   <v>      -0.18750000       0.18750000       0.00000000 </v>
   <v>       0.31250000       0.31250000       0.00000000 </v>
   <v>       0.43750000       0.31250000       0.00000000 </v>
   <v>      -0.43750000       0.31250000       0.00000000 </v>
   <v>      -0.31250000       0.31250000       0.00000000 </v>
   <v>       0.43750000       0.43750000       0.00000000 </v>
   <v>      -0.43750000       0.43750000       0.00000000 </v>
  </varray>
  <varray name="weights" >
   <v>       0.03125000 </v>
   <v>       0.06250000 </v>
   <v>       0.06250000 </v>
   <v>       0.06250000 </v>
   <v>       0.06250000 </v>
   <v>       0.06250000 </v>
   <v>       0.06250000 </v>
   <v>       0.03125000 </v>
   <v>       0.03125000 </v>
   <v>       0.06250000 </v>
   <v>       0.06250000 </v>
   <v>       0.06250000 </v>
   <v>       0.06250000 </v>
   <v>       0.03125000 </v>
   <v>       0.03125000 </v>
   <v>       0.06250000 </v>
   <v>       0.06250000 </v>
   <v>       0.03125000 </v>
   <v>       0.03125000 </v>
   <v>       0.03125000 </v>
  </varray>
 </kpoints>
 <parameters>
  <separator name="general" >
   <i type="string" name="SYSTEM">unknown system</i>
   <i type="logical" name="LCOMPAT"> F  </i>
  </separator>
  <separator name="electronic" >
   <i type="string" name="PREC">normal</i>
   <i name="ENMAX">    350.00000000</i>
   <i name="ENAUG">    358.96600000</i>
   <i name="EDIFF">      0.00001000</i>
   <i type="int" name="IALGO">    38</i>
   <i type="int" name="IWAVPR">    10</i>
   <i type="int" name="NBANDS">    96</i>
   <i name="NELECT">    160.00000000</i>
   <i type="int" name="TURBO">     0</i>
   <i type="int" name="IRESTART">     0</i>
   <i type="int" name="NREBOOT">     0</i>
   <i type="int" name="NMIN">     0</i>
   <i name="EREF">      0.00000000</i>
   <separator name="electronic smearing" >
    <i type="int" name="ISMEAR">     1</i>
    <i name="SIGMA">      0.20000000</i>
    <i name="KSPACING">      0.50000000</i>
    <i type="logical" name="KGAMMA"> T  </i>
   </separator>
   <separator name="electronic projectors" >
    <i type="logical" name="LREAL"> F  </i>
    <v name="ROPT">      0.00000000      0.00000000      0.00000000</v>
    <i type="int" name="LMAXPAW">  -100</i>
    <i type="int" name="LMAXMIX">     2</i>
    <i type="logical" name="NLSPLINE"> F  </i>
   </separator>
   <separator name="electronic startup" >
    <i type="int" name="ISTART">     0</i>
    <i type="int" name="ICHARG">     2</i>
    <i type="int" name="INIWAV">     1</i>
   </separator>
   <separator name="electronic spin" >
    <i type="int" name="ISPIN">     1</i>
    <i type="logical" name="LNONCOLLINEAR"> F  </i>
    <v name="MAGMOM">      1.00000000      1.00000000      1.00000000      1.00000000      1.00000000      1.00000000      1.00000000      1.00000000      1.00000000      1.00000000      1.00000000      1.00000000      1.00000000      1.00000000      1.00000000      1.00000000</v>
    <i name="NUPDOWN">     -1.00000000</i>
    <i type="logical" name="LSORBIT"> F  </i>
    <v name="SAXIS">      0.00000000      0.00000000      1.00000000</v>
    <i type="logical" name="LSPIRAL"> F  </i>
    <v name="QSPIRAL">      0.00000000      0.00000000      0.00000000</v>
    <i type="logical" name="LZEROZ"> F  </i>
   </separator>
   <separator name="electronic exchange-correlation" >
    <i type="logical" name="LASPH"> F  </i>
    <i type="logical" name="LMETAGGA"> F  </i>
   </separator>
   <separator name="electronic convergence" >
    <i type="int" name="NELM">    60</i>
    <i type="int" name="NELMDL">    -5</i>
    <i type="int" name="NELMIN">     2</i>
    <i name="ENINI">    350.00000000</i>
    <separator name="electronic convergence detail" >
     <i type="logical" name="LDIAG"> T  </i>
     <i type="logical" name="LSUBROT"> F  </i>
     <i name="WEIMIN">      0.00000000</i>
     <i name="EBREAK">      0.00000003</i>
     <i name="DEPER">      0.30000000</i>
     <i type="int" name="NRMM">     4</i>
     <i name="TIME">      0.40000000</i>
    </separator>
   </separator>
   <separator name="electronic mixer" >
    <i name="AMIX">      0.40000000</i>
    <i name="BMIX">      1.00000000</i>
    <i name="AMIN">      0.10000000</i>
    <i name="AMIX_MAG">      1.60000000</i>
    <i name="BMIX_MAG">      1.00000000</i>
    <separator name="electronic mixer details" >
     <i type="int" name="IMIX">     4</i>
     <i type="logical" name="MIXFIRST"> F  </i>
     <i type="int" name="MAXMIX">   -45</i>
     <i name="WC">    100.00000000</i>
     <i type="int" name="INIMIX">     1</i>
     <i type="int" name="MIXPRE">     1</i>
     <i type="int" name="MREMOVE">     5</i>
    </separator>
   </separator>
   <separator name="electronic dipolcorrection" >
    <i type="logical" name="LDIPOL"> F  </i>
    <i type="logical" name="LMONO"> F  </i>
    <i type="int" name="IDIPOL">     3</i>
    <i name="EPSILON">      1.00000000</i>
    <v name="DIPOL">   -100.00000000   -100.00000000   -100.00000000</v>
    <i name="EFIELD">      0.00000000</i>
   </separator>
  </separator>
  <separator name="grids" >
   <i type="int" name="NGX">    28</i>
   <i type="int" name="NGY">    28</i>
   <i type="int" name="NGZ">   144</i>
   <i type="int" name="NGXF">    56</i>
   <i type="int" name="NGYF">    56</i>
   <i type="int" name="NGZF">   288</i>
   <i type="logical" name="ADDGRID"> F  </i>
  </separator>
  <separator name="ionic" >
   <i type="int" name="NSW">     0</i>
   <i type="int" name="IBRION">    -1</i>
   <i type="int" name="MDALGO">     0</i>
   <i type="int" name="ISIF">     2</i>
   <i name="PSTRESS">      0.00000000</i>
   <i name="EDIFFG">     -0.05000000</i>
   <i type="int" name="NFREE">     1</i>
   <i name="POTIM">      0.50000000</i>
   <i name="SMASS">     -3.00000000</i>
   <i name="SCALEE">      1.00000000</i>
  </separator>
  <separator name="ionic md" >
   <i name="TEBEG">      0.00010000</i>
   <i name="TEEND">      0.00010000</i>
   <i type="int" name="NBLOCK">     1</i>
   <i type="int" name="KBLOCK">     1</i>
   <i type="int" name="NPACO">   256</i>
   <i name="APACO">     16.00000000</i>
  </separator>
  <separator name="symmetry" >
   <i type="int" name="ISYM">     2</i>
   <i name="SYMPREC">      0.00001000</i>
  </separator>
  <separator name="dos" >
   <i type="int" name="LORBIT">     0</i>
   <v name="RWIGS">     -1.00000000     -1.00000000     -1.00000000</v>
   <i type="int" name="NEDOS">   301</i>
   <i name="EMIN">     10.00000000</i>
   <i name="EMAX">    -10.00000000</i>
   <i name="EFERMI">      0.00000000</i>
  </separator>
  <separator name="writing" >
   <i type="int" name="NWRITE">     2</i>
   <i type="logical" name="LWAVE"> F  </i>
   <i type="logical" name="LDOWNSAMPLE"> F  </i>
   <i type="logical" name="LCHARG"> F  </i>
   <i type="logical" name="LPARD"> F  </i>
   <i type="logical" name="LVTOT"> F  </i>
   <i type="logical" name="LVHAR"> F  </i>
   <i type="logical" name="LELF"> F  </i>
   <i type="logical" name="LOPTICS"> F  </i>
   <v name="STM">      0.00000000      0.00000000      0.00000000      0.00000000      0.00000000      0.00000000      0.00000000</v>
  </separator>
  <separator name="performance" >
   <i type="int" name="NPAR">    24</i>
   <i type="int" name="NSIM">     4</i>
   <i type="int" name="NBLK">    -1</i>
   <i type="logical" name="LPLANE"> T  </i>
   <i type="logical" name="LSCALAPACK"> T  </i>
   <i type="logical" name="LSCAAWARE"> F  </i>
   <i type="logical" name="LSCALU"> F  </i>
   <i type="logical" name="LASYNC"> F  </i>
   <i type="logical" name="LORBITALREAL"> F  </i>
  </separator>
  <separator name="miscellaneous" >
   <i type="int" name="IDIOT">     3</i>
   <i type="int" name="ISPECIAL">     0</i>
   <i type="logical" name="LMUSIC"> F  </i>
   <v name="POMASS">    196.96600000    195.08000000    192.22000000</v>
   <v name="DARWINR">      0.00000000      0.00000000      0.00000000</v>
   <v name="DARWINV">      1.00000000      1.00000000      1.00000000</v>
   <i type="logical" name="LCORR"> T  </i>
  </separator>
  <i type="logical" name="GGA_COMPAT"> T  </i>
  <i type="logical" name="LBERRY"> F  </i>
  <i type="int" name="ICORELEVEL">     0</i>
  <i type="logical" name="LDAU"> F  </i>
  <i type="int" name="I_CONSTRAINED_M">     0</i>
  <separator name="electronic exchange-correlation" >
   <i type="string" name="GGA">PE</i>
   <i type="int" name="VOSKOWN">     0</i>
   <i type="logical" name="LHFCALC"> F  </i>
   <i type="string" name="PRECFOCK"></i>
   <i type="logical" name="LSYMGRAD"> F  </i>
   <i type="logical" name="LHFONE"> F  </i>
   <i type="logical" name="LRHFCALC"> F  </i>
   <i type="logical" name="LTHOMAS"> F  </i>
   <i type="logical" name="LMODELHF"> F  </i>
   <i name="ENCUT4O">     -1.00000000</i>
   <i type="int" name="EXXOEP">     0</i>
   <i type="int" name="FOURORBIT">     0</i>
   <i name="AEXX">      0.00000000</i>
   <i name="HFALPHA">      0.00000000</i>
   <i name="MCALPHA">      0.00000000</i>
   <i name="ALDAX">      1.00000000</i>
   <i name="AGGAX">      1.00000000</i>
   <i name="ALDAC">      1.00000000</i>
   <i name="AGGAC">      1.00000000</i>
   <i type="int" name="NKREDX">     1</i>
   <i type="int" name="NKREDY">     1</i>
   <i type="int" name="NKREDZ">     1</i>
   <i type="logical" name="SHIFTRED"> F  </i>
   <i type="logical" name="ODDONLY"> F  </i>
   <i type="logical" name="EVENONLY"> F  </i>
   <i type="int" name="LMAXFOCK">     0</i>
   <i type="int" name="NMAXFOCKAE">     0</i>
   <i type="logical" name="LFOCKAEDFT"> F  </i>
   <i name="HFSCREEN">      0.00000000</i>
   <i name="HFSCREENC">      0.00000000</i>
   <i type="int" name="NBANDSGWLOW">     0</i>
  </separator>
  <separator name="vdW DFT" >
   <i type="logical" name="LUSE_VDW"> F  </i>
   <i name="Zab_VDW">     -0.84910000</i>
   <i name="PARAM1">      0.12340000</i>
   <i name="PARAM2">      1.00000000</i>
   <i name="PARAM3">      0.00000000</i>
  </separator>
  <separator name="model GW" >
   <i type="int" name="MODEL_GW">     0</i>
   <i name="MODEL_EPS0">     30.90479278</i>
   <i name="MODEL_ALPHA">      1.00000000</i>
  </separator>
  <separator name="linear response parameters" >
   <i type="logical" name="LEPSILON"> F  </i>
   <i type="logical" name="LRPA"> F  </i>
   <i type="logical" name="LNABLA"> F  </i>
   <i type="logical" name="LVEL"> F  </i>
   <i type="int" name="KINTER">     0</i>
   <i name="CSHIFT">      0.10000000</i>
   <i name="OMEGAMAX">     -1.00000000</i>
   <i name="DEG_THRESHOLD">      0.00200000</i>
   <i name="RTIME">     -0.10000000</i>
   <i name="WPLASMAI">      0.00000000</i>
   <v name="DFIELD">      0.00000000      0.00000000      0.00000000</v>
   <v name="WPLASMA">      0.00000000      0.00000000      0.00000000      0.00000000      0.00000000      0.00000000      0.00000000      0.00000000      0.00000000</v>
  </separator>
  <separator name="orbital magnetization" >
   <i type="logical" name="NUCIND"> F  </i>
   <v name="MAGPOS">      0.00000000      0.00000000      0.00000000</v>
   <i type="logical" name="LNICSALL"> T  </i>
   <i type="logical" name="ORBITALMAG"> F  </i>
   <i type="logical" name="LMAGBLOCH"> F  </i>
   <i type="logical" name="LCHIMAG"> F  </i>
   <i type="logical" name="LGAUGE"> T  </i>
   <i type="int" name="MAGATOM">     0</i>
   <v name="MAGDIPOL">      0.00000000      0.00000000      0.00000000</v>
   <v name="AVECCONST">      0.00000000      0.00000000      0.00000000</v>
  </separator>
  <separator name="response functions" >
   <i type="logical" name="LADDER"> F  </i>
   <i type="logical" name="LRPAFORCE"> F  </i>
   <i type="logical" name="LFXC"> F  </i>
   <i type="logical" name="LHARTREE"> T  </i>
   <i type="int" name="IBSE">     0</i>
   <v type="int" name="KPOINT">    -1     0     0     0</v>
   <i type="logical" name="LTCTE"> F  </i>
   <i type="logical" name="LTETE"> F  </i>
   <i type="logical" name="LTRIPLET"> F  </i>
   <i type="logical" name="LFXCEPS"> F  </i>
   <i type="logical" name="LFXHEG"> F  </i>
   <i type="int" name="NATURALO">     2</i>
   <i type="logical" name="L2ORDER"> F  </i>
   <i type="logical" name="LMP2LT"> F  </i>
   <i type="logical" name="LUSEW"> F  </i>
   <i name="ENCUTGW">     -2.00000000</i>
   <i name="ENCUTGWSOFT">     -2.00000000</i>
   <i name="ENCUTLF">     -1.00000000</i>
   <i type="int" name="LMAXMP2">    -1</i>
   <i name="SCISSOR">      0.00000000</i>
   <i type="int" name="NOMEGA">     0</i>
   <i type="int" name="NOMEGAR">     0</i>
   <i type="int" name="NBANDSGW">    -1</i>
   <i type="int" name="NBANDSO">    -1</i>
   <i type="int" name="NBANDSV">    -1</i>
   <i type="int" name="NELM">     1</i>
   <i type="int" name="NELMHF">     1</i>
   <i type="int" name="DIM">     3</i>
   <i type="int" name="ANTIRES">     0</i>
   <i name="OMEGAMAX">    -30.00000000</i>
   <i name="OMEGAMIN">    -30.00000000</i>
   <i name="OMEGATL">   -200.00000000</i>
   <i type="int" name="OMEGAGRID">   140</i>
   <i name="CSHIFT">     -0.10000000</i>
   <i type="logical" name="SELFENERGY"> F  </i>
   <i type="logical" name="LSPECTRAL"> F  </i>
   <i type="logical" name="LSPECTRALGW"> F  </i>
   <i type="logical" name="LSINGLES"> F  </i>
   <i type="logical" name="LFERMIGW"> F  </i>
   <i type="logical" name="ODDONLYGW"> F  </i>
   <i type="logical" name="EVENONLYGW"> F  </i>
   <i type="int" name="NKREDLFX">     1</i>
   <i type="int" name="NKREDLFY">     1</i>
   <i type="int" name="NKREDLFZ">     1</i>
   <i type="int" name="MAXMEM">  2800</i>
   <i type="int" name="TELESCOPE">     0</i>
   <i type="int" name="TAUPAR">     1</i>
   <i type="int" name="OMEGAPAR">    -1</i>
   <i name="LAMBDA">      1.00000000</i>
  </separator>
  <separator name="External order field" >
   <i name="OFIELD_KAPPA">      0.00000000</i>
   <v name="OFIELD_K">      0.00000000      0.00000000      0.00000000</v>
   <i name="OFIELD_Q6_NEAR">      0.00000000</i>
   <i name="OFIELD_Q6_FAR">      0.00000000</i>
   <i name="OFIELD_A">      0.00000000</i>
  </separator>
 </parameters>
 <atominfo>
  <atoms>      16 </atoms>
  <types>       3 </types>
  <array name="atoms" >
   <dimension dim="1">ion</dimension>
   <field type="string">element</field>
   <field type="int">atomtype</field>
   <set>
    <rc><c>Au</c><c>   1</c></rc>
    <rc><c>Pt</c><c>   2</c></rc>
    <rc><c>Pt</c><c>   2</c></rc>
    <rc><c>Pt</c><c>   2</c></rc>
    <rc><c>Pt</c><c>   2</c></rc>
    <rc><c>Pt</c><c>   2</c></rc>
    <rc><c>Pt</c><c>   2</c></rc>
    <rc><c>Pt</c><c>   2</c></rc>
    <rc><c>Pt</c><c>   2</c></rc>
    <rc><c>Pt</c><c>   2</c></rc>
    <rc><c>Pt</c><c>   2</c></rc>
    <rc><c>Pt</c><c>   2</c></rc>
    <rc><c>Pt</c><c>   2</c></rc>
    <rc><c>Pt</c><c>   2</c></rc>
    <rc><c>Pt</c><c>   2</c></rc>
    <rc><c>Ir</c><c>   3</c></rc>
   </set>
  </array>
  <array name="atomtypes" >
   <dimension dim="1">type</dimension>
   <field type="int">atomspertype</field>
   <field type="string">element</field>
   <field>mass</field>
   <field>valence</field>
   <field type="string">pseudopotential</field>
   <set>
    <rc><c>   1</c><c>Au</c><c>    196.96600000</c><c>     11.00000000</c><c>  PAW_PBE Au 04Oct2007                  </c></rc>
    <rc><c>  14</c><c>Pt</c><c>    195.08000000</c><c>     10.00000000</c><c>  PAW_PBE Pt 04Feb2005                  </c></rc>
    <rc><c>   1</c><c>Ir</c><c>    192.22000000</c><c>      9.00000000</c><c>  PAW_PBE Ir 06Sep2000                  </c></rc>
   </set>
  </array>
 </atominfo>
 <structure name="initialpos" >
  <crystal>
   <varray name="basis" >
    <v>       5.55785930       0.00000000       0.00000000 </v>
    <v>       2.77892965       4.81324734       0.00000000 </v>
    <v>       0.00000000       0.00000000      30.80695967 </v>
   </varray>
   <i name="volume">    824.12780743 </i>
   <varray name="rec_basis" >
    <v>       0.17992539      -0.10387997       0.00000000 </v>
    <v>       0.00000000       0.20775994       0.00000000 </v>
    <v>       0.00000000       0.00000000       0.03246020 </v>
   </varray>
  </crystal>
  <varray name="positions" >
   <v>       0.00000000       0.00000000       0.38952237 </v>
   <v>       0.50000000       0.00000000       0.38952237 </v>
   <v>       0.00000000       0.50000000       0.38952237 </v>
   <v>       0.50000000       0.50000000       0.38952237 </v>
   <v>       0.16666667       0.16666667       0.46468540 </v>
   <v>       0.66666667       0.16666667       0.46468540 </v>
   <v>       0.16666667       0.66666667       0.46468540 </v>
   <v>       0.66666667       0.66666667       0.46468540 </v>
   <v>       0.83333333       0.33333333       0.53920296 </v>
   <v>       0.83333333       0.83333333       0.53920296 </v>
   <v>       0.33333333       0.83333333       0.53920296 </v>
   <v>       0.00000000       0.00000000       0.61486043 </v>
   <v>       0.50000000       0.00000000       0.61486043 </v>
   <v>       0.00000000       0.50000000       0.61486043 </v>
   <v>       0.50000000       0.50000000       0.61486043 </v>
   <v>       0.33333333       0.33333333       0.53920296 </v>
  </varray>
  <varray name="selective"  type="logical" >
   <v type="logical" >  F  F  F </v>
   <v type="logical" >  F  F  F </v>
   <v type="logical" >  F  F  F </v>
   <v type="logical" >  F  F  F </v>
   <v type="logical" >  T  T  T </v>
   <v type="logical" >  T  T  T </v>
   <v type="logical" >  T  T  T </v>
   <v type="logical" >  T  T  T </v>
   <v type="logical" >  T  T  T </v>
   <v type="logical" >  T  T  T </v>
   <v type="logical" >  T  T  T </v>
   <v type="logical" >  T  T  T </v>
   <v type="logical" >  T  T  T </v>
   <v type="logical" >  T  T  T </v>
   <v type="logical" >  T  T  T </v>
   <v type="logical" >  T  T  T </v>
  </varray>
  <nose>
   <v>      -3.00000000       0.00000000       0.00010000       0.00010000 </v>
  </nose>
 </structure>
 <calculation>
  <scstep>
   <time name="dav">    3.46    3.46</time>
   <time name="total">    3.48    3.49</time>
   <energy>
    <i name="alphaZ">    303.52543553 </i>
    <i name="ewald">  97993.85346281 </i>
    <i name="hartreedc">-110064.81382047 </i>
    <i name="XCdc">     46.30325017 </i>
    <i name="pawpsdc">  11171.21661038 </i>
    <i name="pawaedc"> -10711.84633960 </i>
    <i name="eentropy">     -0.01921126 </i>
    <i name="bandstr">    544.06539749 </i>
    <i name="atom">  11693.69420960 </i>
    <i name="e_fr_energy">    975.97899465 </i>
    <i name="e_wo_entrp">    975.99820591 </i>
    <i name="e_0_energy">    975.98539840 </i>
   </energy>
  </scstep>
  <scstep>
   <time name="dav">    4.95    4.95</time>
   <time name="total">    4.95    4.95</time>
   <energy>
    <i name="e_fr_energy">    -39.83482746 </i>
    <i name="e_wo_entrp">    -39.82506516 </i>
    <i name="e_0_energy">    -39.83157336 </i>
   </energy>
  </scstep>
  <scstep>
   <time name="dav">    4.31    4.31</time>
   <time name="total">    4.31    4.31</time>
   <energy>
    <i name="e_fr_energy">    -97.46902813 </i>
    <i name="e_wo_entrp">    -97.43878600 </i>
    <i name="e_0_energy">    -97.45894742 </i>
   </energy>
  </scstep>
  <scstep>
   <time name="dav">    4.76    4.76</time>
   <time name="total">    4.76    4.76</time>
   <energy>
    <i name="e_fr_energy">    -98.68228067 </i>
    <i name="e_wo_entrp">    -98.65165366 </i>
    <i name="e_0_energy">    -98.67207166 </i>
   </energy>
  </scstep>
  <scstep>
   <time name="dav">    5.01    5.01</time>
   <time name="total">    5.14    5.14</time>
   <energy>
    <i name="e_fr_energy">    -98.71370425 </i>
    <i name="e_wo_entrp">    -98.68305259 </i>
    <i name="e_0_energy">    -98.70348703 </i>
   </energy>
  </scstep>
  <scstep>
   <time name="dav">    4.14    4.14</time>
   <time name="total">    4.29    4.29</time>
   <energy>
    <i name="e_fr_energy">    -94.84425919 </i>
    <i name="e_wo_entrp">    -94.80032976 </i>
    <i name="e_0_energy">    -94.82961605 </i>
   </energy>
  </scstep>
  <scstep>
   <time name="dav">    4.35    4.35</time>
   <time name="total">    4.50    4.51</time>
   <energy>
    <i name="e_fr_energy">   -118.89905893 </i>
    <i name="e_wo_entrp">   -118.86975758 </i>
    <i name="e_0_energy">   -118.88929182 </i>
   </energy>
  </scstep>
  <scstep>
   <time name="dav">    4.69    4.69</time>
   <time name="total">    4.84    4.84</time>
   <energy>
    <i name="e_fr_energy">    -96.49467197 </i>
    <i name="e_wo_entrp">    -96.45472151 </i>
    <i name="e_0_energy">    -96.48135515 </i>
   </energy>
  </scstep>
  <scstep>
   <time name="dav">    4.95    4.95</time>
   <time name="total">    5.10    5.10</time>
   <energy>
    <i name="e_fr_energy">   -103.00259915 </i>
    <i name="e_wo_entrp">   -102.99835740 </i>
    <i name="e_0_energy">   -103.00118523 </i>
   </energy>
  </scstep>
  <scstep>
   <time name="dav">    4.99    4.99</time>
   <time name="total">    5.14    5.14</time>
   <energy>
    <i name="e_fr_energy">    -96.17102506 </i>
    <i name="e_wo_entrp">    -96.14432401 </i>
    <i name="e_0_energy">    -96.16212471 </i>
   </energy>
  </scstep>
  <scstep>
   <time name="dav">    4.91    4.91</time>
   <time name="total">    5.06    5.06</time>
   <energy>
    <i name="e_fr_energy">    -94.47948328 </i>
    <i name="e_wo_entrp">    -94.48507397 </i>
    <i name="e_0_energy">    -94.48134685 </i>
   </energy>
  </scstep>
  <scstep>
   <time name="dav">    4.32    4.32</time>
   <time name="total">    4.47    4.47</time>
   <energy>
    <i name="e_fr_energy">    -92.85834463 </i>
    <i name="e_wo_entrp">    -92.84335821 </i>
    <i name="e_0_energy">    -92.85334915 </i>
   </energy>
  </scstep>
  <scstep>
   <time name="dav">    4.67    4.67</time>
   <time name="total">    4.82    4.82</time>
   <energy>
    <i name="e_fr_energy">    -92.52207845 </i>
    <i name="e_wo_entrp">    -92.48781913 </i>
    <i name="e_0_energy">    -92.51065867 </i>
   </energy>
  </scstep>
  <scstep>
   <time name="dav">    4.44    4.44</time>
   <time name="total">    4.60    4.60</time>
   <energy>
    <i name="e_fr_energy">    -92.46497184 </i>
    <i name="e_wo_entrp">    -92.43552905 </i>
    <i name="e_0_energy">    -92.45515757 </i>
   </energy>
  </scstep>
  <scstep>
   <time name="dav">    3.93    3.93</time>
   <time name="total">    4.08    4.08</time>
   <energy>
    <i name="e_fr_energy">    -92.44131586 </i>
    <i name="e_wo_entrp">    -92.39998437 </i>
    <i name="e_0_energy">    -92.42753870 </i>
   </energy>
  </scstep>
  <scstep>
   <time name="dav">    4.23    4.23</time>
   <time name="total">    4.38    4.38</time>
   <energy>
    <i name="e_fr_energy">    -92.41760877 </i>
    <i name="e_wo_entrp">    -92.38354609 </i>
    <i name="e_0_energy">    -92.40625454 </i>
   </energy>
  </scstep>
  <scstep>
   <time name="dav">    3.83    3.83</time>
   <time name="total">    3.98    3.98</time>
   <energy>
    <i name="e_fr_energy">    -92.41110036 </i>
    <i name="e_wo_entrp">    -92.37362697 </i>
    <i name="e_0_energy">    -92.39860923 </i>
   </energy>
  </scstep>
  <scstep>
   <time name="dav">    4.89    4.89</time>
   <time name="total">    5.04    5.04</time>
   <energy>
    <i name="e_fr_energy">    -92.40424138 </i>
    <i name="e_wo_entrp">    -92.36434377 </i>
    <i name="e_0_energy">    -92.39094218 </i>
   </energy>
  </scstep>
  <scstep>
   <time name="dav">    4.09    4.09</time>
   <time name="total">    4.24    4.24</time>
   <energy>
    <i name="e_fr_energy">    -92.40337353 </i>
    <i name="e_wo_entrp">    -92.36256408 </i>
    <i name="e_0_energy">    -92.38977038 </i>
   </energy>
  </scstep>
  <scstep>
   <time name="dav">    4.06    4.06</time>
   <time name="total">    4.22    4.22</time>
   <energy>
    <i name="e_fr_energy">    -92.40157613 </i>
    <i name="e_wo_entrp">    -92.36189802 </i>
    <i name="e_0_energy">    -92.38835009 </i>
   </energy>
  </scstep>
  <scstep>
   <time name="dav">    4.73    4.73</time>
   <time name="total">    4.89    4.89</time>
   <energy>
    <i name="e_fr_energy">    -92.40119539 </i>
    <i name="e_wo_entrp">    -92.36203506 </i>
    <i name="e_0_energy">    -92.38814195 </i>
   </energy>
  </scstep>
  <scstep>
   <time name="dav">    4.13    4.13</time>
   <time name="total">    4.28    4.28</time>
   <energy>
    <i name="e_fr_energy">    -92.40108430 </i>
    <i name="e_wo_entrp">    -92.36198381 </i>
    <i name="e_0_energy">    -92.38805080 </i>
   </energy>
  </scstep>
  <scstep>
   <time name="dav">    3.31    3.31</time>
   <time name="total">    3.33    3.33</time>
   <energy>
    <i name="alphaZ">    303.52543553 </i>
    <i name="ewald">  97993.85346281 </i>
    <i name="hartreedc">-109897.23806268 </i>
    <i name="XCdc">     40.67351118 </i>
    <i name="pawpsdc">  14188.46637222 </i>
    <i name="pawaedc"> -13773.37901112 </i>
    <i name="eentropy">     -0.03914679 </i>
    <i name="bandstr">   -641.95786104 </i>
    <i name="atom">  11693.69420960 </i>
    <i name="e_fr_energy">    -92.40109028 </i>
    <i name="e_wo_entrp">    -92.36194349 </i>
    <i name="e_0_energy">    -92.38804135 </i>
   </energy>
  </scstep>
  <dipole>
   <v name="dipole">      0.00000000       0.00000000       0.01794157 </v>
   <i name="Tr[quadrupol]">   -944.32585822 </i>
   <i name="Echarged">      0.00000000 </i>
   <i name="Edipol_quadrupol">      0.00000000 </i>
   <i name="Eion">      0.00000000 </i>
  </dipole>
  <structure>
   <crystal>
    <varray name="basis" >
     <v>       5.55785930       0.00000000       0.00000000 </v>
     <v>       2.77892965       4.81324734       0.00000000 </v>
     <v>       0.00000000       0.00000000      30.80695967 </v>
    </varray>
    <i name="volume">    824.12780743 </i>
    <varray name="rec_basis" >
     <v>       0.17992539      -0.10387997       0.00000000 </v>
     <v>       0.00000000       0.20775994       0.00000000 </v>
     <v>       0.00000000       0.00000000       0.03246020 </v>
    </varray>
   </crystal>
   <varray name="positions" >
    <v>       0.00000000       0.00000000       0.38952237 </v>
    <v>       0.50000000       0.00000000       0.38952237 </v>
    <v>       0.00000000       0.50000000       0.38952237 </v>
    <v>       0.50000000       0.50000000       0.38952237 </v>
    <v>       0.16666667       0.16666667       0.46468540 </v>
    <v>       0.66666667       0.16666667       0.46468540 </v>
    <v>       0.16666667       0.66666667       0.46468540 </v>
    <v>       0.66666667       0.66666667       0.46468540 </v>
    <v>       0.83333333       0.33333333       0.53920296 </v>
    <v>       0.83333333       0.83333333       0.53920296 </v>
    <v>       0.33333333       0.83333333       0.53920296 </v>
    <v>       0.00000000       0.00000000       0.61486043 </v>
    <v>       0.50000000       0.00000000       0.61486043 </v>
    <v>       0.00000000       0.50000000       0.61486043 </v>
    <v>       0.50000000       0.50000000       0.61486043 </v>
    <v>       0.33333333       0.33333333       0.53920296 </v>
   </varray>
  </structure>
  <varray name="forces" >
   <v>       0.00000000      -0.00000000      -1.10021176 </v>
   <v>      -0.00000000      -0.02732632       0.02709918 </v>
   <v>      -0.02366529       0.01366316       0.02709918 </v>
   <v>       0.02366529       0.01366316       0.02709918 </v>
   <v>       0.29118739       0.16811712       0.48322572 </v>
   <v>      -0.29118739       0.16811712       0.48322572 </v>
   <v>       0.00000000      -0.33623424       0.48322572 </v>
   <v>       0.00000000      -0.00000000      -0.09587089 </v>
   <v>      -0.00000000      -0.01923565       0.01374339 </v>
   <v>       0.01665857       0.00961783       0.01374339 </v>
   <v>      -0.01665857       0.00961783       0.01374339 </v>
   <v>      -0.00000000      -0.00000000       0.01461900 </v>
   <v>      -0.00000000       0.12562447      -0.22922019 </v>
   <v>       0.10879398      -0.06281223      -0.22922019 </v>
   <v>      -0.10879398      -0.06281223      -0.22922019 </v>
   <v>       0.00000000      -0.00000000       0.29691934 </v>
  </varray>
  <varray name="stress" >
   <v>     -21.68939471       0.00000000       0.00000000 </v>
   <v>       0.00000000     -21.68939471       0.00000000 </v>
   <v>       0.00000000      -0.00000000      -2.06748163 </v>
  </varray>
  <energy>
   <i name="e_fr_energy">    -92.40105494 </i>
   <i name="e_wo_entrp">    -92.38800601 </i>
   <i name="e_0_energy">     -0.03914679 </i>
  </energy>
  <time name="totalsc">  108.78  108.81</time>
  <eigenvalues>
   <array>
    <dimension dim="1">band</dimension>
    <dimension dim="2">kpoint</dimension>
    <dimension dim="3">spin</dimension>
    <field>eigene</field>
    <field>occ</field>
    <set>
     <set comment="spin 1">
      <set comment="kpoint 1">
       <r>  -10.1952    1.0000 </r>
       <r>   -8.9215    1.0000 </r>
       <r>   -7.8675    1.0000 </r>
       <r>   -7.7268    1.0000 </r>
       <r>   -7.4590    1.0000 </r>
       <r>   -7.4347    1.0000 </r>
       <r>   -7.4263    1.0000 </r>
       <r>   -7.3032    1.0000 </r>
       <r>   -7.2882    1.0000 </r>
       <r>   -7.2872    1.0000 </r>
       <r>   -6.8413    1.0000 </r>
       <r>   -6.8136    1.0000 </r>
       <r>   -6.8088    1.0000 </r>
       <r>   -6.8007    1.0000 </r>
       <r>   -6.7902    1.0000 </r>
       <r>   -6.6080    1.0000 </r>
       <r>   -6.5617    1.0000 </r>
       <r>   -6.5499    1.0000 </r>
       <r>   -6.5038    1.0000 </r>
       <r>   -5.7949    1.0000 </r>
       <r>   -5.7935    1.0000 </r>
       <r>   -5.7081    1.0000 </r>
       <r>   -4.9413    1.0000 </r>
       <r>   -4.9333    1.0000 </r>
       <r>   -4.8414    1.0000 </r>
       <r>   -4.6786    1.0000 </r>
       <r>   -4.6553    1.0000 </r>
       <r>   -4.6464    1.0000 </r>
       <r>   -4.5854    1.0000 </r>
       <r>   -4.4808    1.0000 </r>
       <r>   -4.3398    1.0000 </r>
       <r>   -4.2967    1.0000 </r>
       <r>   -4.1681    1.0000 </r>
       <r>   -4.1595    1.0000 </r>
       <r>   -4.0463    1.0000 </r>
       <r>   -4.0118    1.0000 </r>
       <r>   -3.9854    1.0000 </r>
       <r>   -3.9525    1.0000 </r>
       <r>   -3.9269    1.0000 </r>
       <r>   -3.8546    1.0000 </r>
       <r>   -3.7706    1.0000 </r>
       <r>   -3.7610    1.0000 </r>
       <r>   -3.4999    1.0000 </r>
       <r>   -3.4705    1.0000 </r>
       <r>   -3.4682    1.0000 </r>
       <r>   -3.1724    1.0000 </r>
       <r>   -3.1361    1.0000 </r>
       <r>   -2.9384    1.0000 </r>
       <r>   -2.9318    1.0000 </r>
       <r>   -2.8067    1.0000 </r>
       <r>   -2.7627    1.0000 </r>
       <r>   -2.3102    1.0000 </r>
       <r>   -2.3064    1.0000 </r>
       <r>   -2.1231    1.0000 </r>
       <r>   -2.1043    1.0000 </r>
       <r>   -1.8726    1.0000 </r>
       <r>   -1.8619    1.0000 </r>
       <r>   -1.7161    1.0000 </r>
       <r>   -1.7018    1.0000 </r>
       <r>   -1.5802    1.0000 </r>
       <r>   -1.5605    1.0000 </r>
       <r>   -1.5528    1.0000 </r>
       <r>   -1.3321    1.0006 </r>
       <r>   -1.1276    1.0220 </r>
       <r>   -1.1197    1.0238 </r>
       <r>   -1.0782    1.0326 </r>
       <r>   -1.0390    1.0351 </r>
       <r>   -0.9744    1.0033 </r>
       <r>   -0.9608    0.9872 </r>
       <r>   -0.8897    0.8314 </r>
       <r>   -0.8369    0.6413 </r>
       <r>   -0.8130    0.5425 </r>
       <r>   -0.7773    0.3924 </r>
       <r>   -0.7733    0.3758 </r>
       <r>   -0.7272    0.2033 </r>
       <r>   -0.6272   -0.0076 </r>
       <r>   -0.5744   -0.0343 </r>
       <r>   -0.5563   -0.0354 </r>
       <r>   -0.3962   -0.0072 </r>
       <r>   -0.3646   -0.0041 </r>
       <r>   -0.3038   -0.0012 </r>
       <r>   -0.2186   -0.0001 </r>
       <r>   -0.2038   -0.0001 </r>
       <r>   -0.1598   -0.0000 </r>
       <r>   -0.0816   -0.0000 </r>
       <r>    0.0326   -0.0000 </r>
       <r>    0.3242   -0.0000 </r>
       <r>    0.3569   -0.0000 </r>
       <r>    1.2384   -0.0000 </r>
       <r>    1.4864   -0.0000 </r>
       <r>    1.6334   -0.0000 </r>
       <r>    1.6763   -0.0000 </r>
       <r>    1.7689   -0.0000 </r>
       <r>    1.7822   -0.0000 </r>
       <r>    2.6149   -0.0000 </r>
       <r>    2.6360   -0.0000 </r>
      </set>
      <set comment="kpoint 2">
       <r>   -9.9907    1.0000 </r>
       <r>   -8.7201    1.0000 </r>
       <r>   -7.6640    1.0000 </r>
       <r>   -7.5313    1.0000 </r>
       <r>   -7.4396    1.0000 </r>
       <r>   -7.3615    1.0000 </r>
       <r>   -7.2434    1.0000 </r>
       <r>   -7.2213    1.0000 </r>
       <r>   -7.1739    1.0000 </r>
       <r>   -7.1080    1.0000 </r>
       <r>   -6.7535    1.0000 </r>
       <r>   -6.7293    1.0000 </r>
       <r>   -6.7119    1.0000 </r>
       <r>   -6.7001    1.0000 </r>
       <r>   -6.6443    1.0000 </r>
       <r>   -6.4965    1.0000 </r>
       <r>   -6.4488    1.0000 </r>
       <r>   -6.3874    1.0000 </r>
       <r>   -6.3273    1.0000 </r>
       <r>   -5.7388    1.0000 </r>
       <r>   -5.7314    1.0000 </r>
       <r>   -5.6527    1.0000 </r>
       <r>   -4.9802    1.0000 </r>
       <r>   -4.9174    1.0000 </r>
       <r>   -4.8688    1.0000 </r>
       <r>   -4.7402    1.0000 </r>
       <r>   -4.6481    1.0000 </r>
       <r>   -4.5827    1.0000 </r>
       <r>   -4.5483    1.0000 </r>
       <r>   -4.5234    1.0000 </r>
       <r>   -4.4539    1.0000 </r>
       <r>   -4.1639    1.0000 </r>
       <r>   -4.1564    1.0000 </r>
       <r>   -4.1399    1.0000 </r>
       <r>   -4.0937    1.0000 </r>
       <r>   -4.0307    1.0000 </r>
       <r>   -4.0218    1.0000 </r>
       <r>   -3.9454    1.0000 </r>
       <r>   -3.8884    1.0000 </r>
       <r>   -3.8510    1.0000 </r>
       <r>   -3.8113    1.0000 </r>
       <r>   -3.6764    1.0000 </r>
       <r>   -3.6244    1.0000 </r>
       <r>   -3.6196    1.0000 </r>
       <r>   -3.5854    1.0000 </r>
       <r>   -3.4592    1.0000 </r>
       <r>   -3.3145    1.0000 </r>
       <r>   -3.1397    1.0000 </r>
       <r>   -2.9667    1.0000 </r>
       <r>   -2.8115    1.0000 </r>
       <r>   -2.7218    1.0000 </r>
       <r>   -2.4420    1.0000 </r>
       <r>   -2.4109    1.0000 </r>
       <r>   -2.3240    1.0000 </r>
       <r>   -2.1696    1.0000 </r>
       <r>   -2.0431    1.0000 </r>
       <r>   -1.9651    1.0000 </r>
       <r>   -1.9496    1.0000 </r>
       <r>   -1.8691    1.0000 </r>
       <r>   -1.8293    1.0000 </r>
       <r>   -1.8006    1.0000 </r>
       <r>   -1.7602    1.0000 </r>
       <r>   -1.6457    1.0000 </r>
       <r>   -1.6163    1.0000 </r>
       <r>   -1.5292    1.0000 </r>
       <r>   -1.4501    1.0000 </r>
       <r>   -1.2966    1.0013 </r>
       <r>   -1.2042    1.0078 </r>
       <r>   -1.1289    1.0217 </r>
       <r>   -1.0875    1.0309 </r>
       <r>   -1.0444    1.0354 </r>
       <r>   -0.9800    1.0087 </r>
       <r>   -0.9428    0.9596 </r>
       <r>   -0.9165    0.9049 </r>
       <r>   -0.8635    0.7434 </r>
       <r>   -0.8289    0.6087 </r>
       <r>   -0.7869    0.4322 </r>
       <r>   -0.7381    0.2409 </r>
       <r>   -0.7013    0.1254 </r>
       <r>   -0.6128   -0.0192 </r>
       <r>   -0.5215   -0.0315 </r>
       <r>   -0.4401   -0.0139 </r>
       <r>   -0.4159   -0.0098 </r>
       <r>   -0.3359   -0.0023 </r>
       <r>   -0.3184   -0.0016 </r>
       <r>    0.1897   -0.0000 </r>
       <r>    0.2438   -0.0000 </r>
       <r>    0.8252   -0.0000 </r>
       <r>    0.8428   -0.0000 </r>
       <r>    1.0995   -0.0000 </r>
       <r>    1.2852   -0.0000 </r>
       <r>    1.6021   -0.0000 </r>
       <r>    2.1639   -0.0000 </r>
       <r>    2.5039   -0.0000 </r>
       <r>    3.0363   -0.0000 </r>
       <r>    3.3812   -0.0000 </r>
      </set>
      <set comment="kpoint 3">
       <r>   -9.5361    1.0000 </r>
       <r>   -8.2844    1.0000 </r>
       <r>   -7.5397    1.0000 </r>
       <r>   -7.2406    1.0000 </r>
       <r>   -7.1204    1.0000 </r>
       <r>   -7.1086    1.0000 </r>
       <r>   -7.0977    1.0000 </r>
       <r>   -6.9047    1.0000 </r>
       <r>   -6.8707    1.0000 </r>
       <r>   -6.7971    1.0000 </r>
       <r>   -6.6784    1.0000 </r>
       <r>   -6.5056    1.0000 </r>
       <r>   -6.4831    1.0000 </r>
       <r>   -6.4456    1.0000 </r>
       <r>   -6.3398    1.0000 </r>
       <r>   -6.2928    1.0000 </r>
       <r>   -6.1363    1.0000 </r>
       <r>   -6.0441    1.0000 </r>
       <r>   -5.9442    1.0000 </r>
       <r>   -5.6175    1.0000 </r>
       <r>   -5.5922    1.0000 </r>
       <r>   -5.5337    1.0000 </r>
       <r>   -5.1060    1.0000 </r>
       <r>   -5.0421    1.0000 </r>
       <r>   -4.9500    1.0000 </r>
       <r>   -4.8397    1.0000 </r>
       <r>   -4.7965    1.0000 </r>
       <r>   -4.7161    1.0000 </r>
       <r>   -4.5264    1.0000 </r>
       <r>   -4.4810    1.0000 </r>
       <r>   -4.4197    1.0000 </r>
       <r>   -4.3024    1.0000 </r>
       <r>   -4.2494    1.0000 </r>
       <r>   -4.2334    1.0000 </r>
       <r>   -4.1335    1.0000 </r>
       <r>   -4.0774    1.0000 </r>
       <r>   -4.0058    1.0000 </r>
       <r>   -3.9366    1.0000 </r>
       <r>   -3.9187    1.0000 </r>
       <r>   -3.8513    1.0000 </r>
       <r>   -3.8169    1.0000 </r>
       <r>   -3.7907    1.0000 </r>
       <r>   -3.7741    1.0000 </r>
       <r>   -3.7536    1.0000 </r>
       <r>   -3.6187    1.0000 </r>
       <r>   -3.5392    1.0000 </r>
       <r>   -3.4705    1.0000 </r>
       <r>   -3.2992    1.0000 </r>
       <r>   -3.0534    1.0000 </r>
       <r>   -2.9945    1.0000 </r>
       <r>   -2.8917    1.0000 </r>
       <r>   -2.8165    1.0000 </r>
       <r>   -2.7255    1.0000 </r>
       <r>   -2.6913    1.0000 </r>
       <r>   -2.6133    1.0000 </r>
       <r>   -2.5803    1.0000 </r>
       <r>   -2.5459    1.0000 </r>
       <r>   -2.5141    1.0000 </r>
       <r>   -2.4787    1.0000 </r>
       <r>   -2.3832    1.0000 </r>
       <r>   -2.2187    1.0000 </r>
       <r>   -2.1489    1.0000 </r>
       <r>   -2.0510    1.0000 </r>
       <r>   -1.9561    1.0000 </r>
       <r>   -1.9172    1.0000 </r>
       <r>   -1.8460    1.0000 </r>
       <r>   -1.6841    1.0000 </r>
       <r>   -1.5936    1.0000 </r>
       <r>   -1.5787    1.0000 </r>
       <r>   -1.5077    1.0000 </r>
       <r>   -1.4603    1.0000 </r>
       <r>   -1.4115    1.0001 </r>
       <r>   -1.2795    1.0019 </r>
       <r>   -1.1905    1.0097 </r>
       <r>   -1.1183    1.0242 </r>
       <r>   -1.0721    1.0336 </r>
       <r>   -1.0455    1.0354 </r>
       <r>   -1.0093    1.0281 </r>
       <r>   -0.8833    0.8113 </r>
       <r>   -0.8295    0.6110 </r>
       <r>   -0.7941    0.4623 </r>
       <r>   -0.7679    0.3542 </r>
       <r>   -0.6538    0.0252 </r>
       <r>   -0.5370   -0.0340 </r>
       <r>   -0.3998   -0.0076 </r>
       <r>    0.3113   -0.0000 </r>
       <r>    0.3598   -0.0000 </r>
       <r>    0.5664   -0.0000 </r>
       <r>    0.9102   -0.0000 </r>
       <r>    1.7332   -0.0000 </r>
       <r>    1.8842   -0.0000 </r>
       <r>    1.9290   -0.0000 </r>
       <r>    2.2654   -0.0000 </r>
       <r>    2.6737   -0.0000 </r>
       <r>    3.1970   -0.0000 </r>
       <r>    3.9244   -0.0000 </r>
      </set>
      <set comment="kpoint 4">
       <r>   -8.8958    1.0000 </r>
       <r>   -7.9096    1.0000 </r>
       <r>   -7.7207    1.0000 </r>
       <r>   -7.1447    1.0000 </r>
       <r>   -6.7933    1.0000 </r>
       <r>   -6.7678    1.0000 </r>
       <r>   -6.6080    1.0000 </r>
       <r>   -6.5668    1.0000 </r>
       <r>   -6.5490    1.0000 </r>
       <r>   -6.5266    1.0000 </r>
       <r>   -6.4849    1.0000 </r>
       <r>   -6.2284    1.0000 </r>
       <r>   -6.1778    1.0000 </r>
       <r>   -6.0768    1.0000 </r>
       <r>   -6.0581    1.0000 </r>
       <r>   -5.9793    1.0000 </r>
       <r>   -5.8302    1.0000 </r>
       <r>   -5.6696    1.0000 </r>
       <r>   -5.5605    1.0000 </r>
       <r>   -5.4448    1.0000 </r>
       <r>   -5.3910    1.0000 </r>
       <r>   -5.3573    1.0000 </r>
       <r>   -5.3112    1.0000 </r>
       <r>   -5.2003    1.0000 </r>
       <r>   -5.0617    1.0000 </r>
       <r>   -5.0122    1.0000 </r>
       <r>   -4.9671    1.0000 </r>
       <r>   -4.7794    1.0000 </r>
       <r>   -4.7268    1.0000 </r>
       <r>   -4.6739    1.0000 </r>
       <r>   -4.6184    1.0000 </r>
       <r>   -4.5142    1.0000 </r>
       <r>   -4.4636    1.0000 </r>
       <r>   -4.4106    1.0000 </r>
       <r>   -4.3273    1.0000 </r>
       <r>   -4.2335    1.0000 </r>
       <r>   -4.1495    1.0000 </r>
       <r>   -4.0920    1.0000 </r>
       <r>   -3.9716    1.0000 </r>
       <r>   -3.8836    1.0000 </r>
       <r>   -3.8098    1.0000 </r>
       <r>   -3.7742    1.0000 </r>
       <r>   -3.7300    1.0000 </r>
       <r>   -3.6837    1.0000 </r>
       <r>   -3.6229    1.0000 </r>
       <r>   -3.5917    1.0000 </r>
       <r>   -3.5490    1.0000 </r>
       <r>   -3.5122    1.0000 </r>
       <r>   -3.3878    1.0000 </r>
       <r>   -3.3526    1.0000 </r>
       <r>   -3.3149    1.0000 </r>
       <r>   -3.2738    1.0000 </r>
       <r>   -3.2265    1.0000 </r>
       <r>   -3.0023    1.0000 </r>
       <r>   -2.9834    1.0000 </r>
       <r>   -2.9066    1.0000 </r>
       <r>   -2.8655    1.0000 </r>
       <r>   -2.8154    1.0000 </r>
       <r>   -2.7685    1.0000 </r>
       <r>   -2.5284    1.0000 </r>
       <r>   -2.5021    1.0000 </r>
       <r>   -2.3900    1.0000 </r>
       <r>   -2.3784    1.0000 </r>
       <r>   -2.2795    1.0000 </r>
       <r>   -2.2485    1.0000 </r>
       <r>   -2.1362    1.0000 </r>
       <r>   -2.0923    1.0000 </r>
       <r>   -1.9943    1.0000 </r>
       <r>   -1.9370    1.0000 </r>
       <r>   -1.8951    1.0000 </r>
       <r>   -1.8277    1.0000 </r>
       <r>   -1.7937    1.0000 </r>
       <r>   -1.6996    1.0000 </r>
       <r>   -1.5744    1.0000 </r>
       <r>   -1.3847    1.0002 </r>
       <r>   -1.2583    1.0030 </r>
       <r>   -1.1962    1.0089 </r>
       <r>   -1.1068    1.0268 </r>
       <r>   -0.8757    0.7864 </r>
       <r>   -0.8575    0.7214 </r>
       <r>   -0.7958    0.4696 </r>
       <r>   -0.7659    0.3460 </r>
       <r>   -0.6583    0.0323 </r>
       <r>   -0.5442   -0.0348 </r>
       <r>   -0.3730   -0.0048 </r>
       <r>   -0.1835   -0.0001 </r>
       <r>    0.7244   -0.0000 </r>
       <r>    0.9981   -0.0000 </r>
       <r>    1.0403   -0.0000 </r>
       <r>    1.8249   -0.0000 </r>
       <r>    1.9715   -0.0000 </r>
       <r>    2.0775   -0.0000 </r>
       <r>    2.4024   -0.0000 </r>
       <r>    3.0398   -0.0000 </r>
       <r>    3.5365   -0.0000 </r>
       <r>    4.0172   -0.0000 </r>
      </set>
      <set comment="kpoint 5">
       <r>   -8.5449    1.0000 </r>
       <r>   -8.2036    1.0000 </r>
       <r>   -7.4668    1.0000 </r>
       <r>   -7.2586    1.0000 </r>
       <r>   -6.6914    1.0000 </r>
       <r>   -6.6603    1.0000 </r>
       <r>   -6.5386    1.0000 </r>
       <r>   -6.4816    1.0000 </r>
       <r>   -6.4406    1.0000 </r>
       <r>   -6.3698    1.0000 </r>
       <r>   -6.3315    1.0000 </r>
       <r>   -6.1978    1.0000 </r>
       <r>   -6.1306    1.0000 </r>
       <r>   -6.0233    1.0000 </r>
       <r>   -5.8840    1.0000 </r>
       <r>   -5.7722    1.0000 </r>
       <r>   -5.6935    1.0000 </r>
       <r>   -5.6546    1.0000 </r>
       <r>   -5.5460    1.0000 </r>
       <r>   -5.4968    1.0000 </r>
       <r>   -5.3402    1.0000 </r>
       <r>   -5.2796    1.0000 </r>
       <r>   -5.2464    1.0000 </r>
       <r>   -5.2147    1.0000 </r>
       <r>   -5.1272    1.0000 </r>
       <r>   -5.0376    1.0000 </r>
       <r>   -5.0189    1.0000 </r>
       <r>   -4.8870    1.0000 </r>
       <r>   -4.8041    1.0000 </r>
       <r>   -4.6852    1.0000 </r>
       <r>   -4.6454    1.0000 </r>
       <r>   -4.5891    1.0000 </r>
       <r>   -4.5664    1.0000 </r>
       <r>   -4.4507    1.0000 </r>
       <r>   -4.4062    1.0000 </r>
       <r>   -4.2674    1.0000 </r>
       <r>   -4.1389    1.0000 </r>
       <r>   -4.0859    1.0000 </r>
       <r>   -4.0540    1.0000 </r>
       <r>   -3.9643    1.0000 </r>
       <r>   -3.9022    1.0000 </r>
       <r>   -3.8508    1.0000 </r>
       <r>   -3.7785    1.0000 </r>
       <r>   -3.7142    1.0000 </r>
       <r>   -3.6916    1.0000 </r>
       <r>   -3.6475    1.0000 </r>
       <r>   -3.6237    1.0000 </r>
       <r>   -3.5867    1.0000 </r>
       <r>   -3.5706    1.0000 </r>
       <r>   -3.5165    1.0000 </r>
       <r>   -3.4464    1.0000 </r>
       <r>   -3.3586    1.0000 </r>
       <r>   -3.1121    1.0000 </r>
       <r>   -3.0633    1.0000 </r>
       <r>   -2.9577    1.0000 </r>
       <r>   -2.9239    1.0000 </r>
       <r>   -2.8181    1.0000 </r>
       <r>   -2.7669    1.0000 </r>
       <r>   -2.6926    1.0000 </r>
       <r>   -2.6429    1.0000 </r>
       <r>   -2.5411    1.0000 </r>
       <r>   -2.4862    1.0000 </r>
       <r>   -2.3983    1.0000 </r>
       <r>   -2.3495    1.0000 </r>
       <r>   -2.2819    1.0000 </r>
       <r>   -2.2509    1.0000 </r>
       <r>   -2.1445    1.0000 </r>
       <r>   -2.1302    1.0000 </r>
       <r>   -2.0595    1.0000 </r>
       <r>   -2.0023    1.0000 </r>
       <r>   -1.9455    1.0000 </r>
       <r>   -1.9269    1.0000 </r>
       <r>   -1.8483    1.0000 </r>
       <r>   -1.7060    1.0000 </r>
       <r>   -1.4564    1.0000 </r>
       <r>   -1.2923    1.0015 </r>
       <r>   -1.2107    1.0070 </r>
       <r>   -1.1138    1.0252 </r>
       <r>   -0.8686    0.7617 </r>
       <r>   -0.8183    0.5648 </r>
       <r>   -0.7935    0.4597 </r>
       <r>   -0.7005    0.1230 </r>
       <r>   -0.5938   -0.0292 </r>
       <r>   -0.5456   -0.0349 </r>
       <r>   -0.4195   -0.0103 </r>
       <r>   -0.3207   -0.0017 </r>
       <r>    0.7541   -0.0000 </r>
       <r>    1.0422   -0.0000 </r>
       <r>    1.3424   -0.0000 </r>
       <r>    1.6556   -0.0000 </r>
       <r>    1.8384   -0.0000 </r>
       <r>    2.1106   -0.0000 </r>
       <r>    2.4296   -0.0000 </r>
       <r>    3.5768   -0.0000 </r>
       <r>    3.5983   -0.0000 </r>
       <r>    4.0309   -0.0000 </r>
      </set>
      <set comment="kpoint 6">
       <r>   -9.2328    1.0000 </r>
       <r>   -8.0092    1.0000 </r>
       <r>   -7.6805    1.0000 </r>
       <r>   -7.1090    1.0000 </r>
       <r>   -6.9849    1.0000 </r>
       <r>   -6.9321    1.0000 </r>
       <r>   -6.8470    1.0000 </r>
       <r>   -6.7166    1.0000 </r>
       <r>   -6.6933    1.0000 </r>
       <r>   -6.6375    1.0000 </r>
       <r>   -6.6327    1.0000 </r>
       <r>   -6.3533    1.0000 </r>
       <r>   -6.3279    1.0000 </r>
       <r>   -6.2545    1.0000 </r>
       <r>   -6.2040    1.0000 </r>
       <r>   -6.1348    1.0000 </r>
       <r>   -5.9641    1.0000 </r>
       <r>   -5.8463    1.0000 </r>
       <r>   -5.7302    1.0000 </r>
       <r>   -5.5236    1.0000 </r>
       <r>   -5.4853    1.0000 </r>
       <r>   -5.4461    1.0000 </r>
       <r>   -5.2171    1.0000 </r>
       <r>   -5.1633    1.0000 </r>
       <r>   -5.0041    1.0000 </r>
       <r>   -4.9354    1.0000 </r>
       <r>   -4.8559    1.0000 </r>
       <r>   -4.7669    1.0000 </r>
       <r>   -4.6134    1.0000 </r>
       <r>   -4.5746    1.0000 </r>
       <r>   -4.4624    1.0000 </r>
       <r>   -4.3995    1.0000 </r>
       <r>   -4.3240    1.0000 </r>
       <r>   -4.2767    1.0000 </r>
       <r>   -4.2228    1.0000 </r>
       <r>   -4.1686    1.0000 </r>
       <r>   -4.1157    1.0000 </r>
       <r>   -4.0987    1.0000 </r>
       <r>   -3.9812    1.0000 </r>
       <r>   -3.8593    1.0000 </r>
       <r>   -3.8141    1.0000 </r>
       <r>   -3.7594    1.0000 </r>
       <r>   -3.7309    1.0000 </r>
       <r>   -3.6657    1.0000 </r>
       <r>   -3.5887    1.0000 </r>
       <r>   -3.5543    1.0000 </r>
       <r>   -3.4703    1.0000 </r>
       <r>   -3.2741    1.0000 </r>
       <r>   -3.2209    1.0000 </r>
       <r>   -3.1305    1.0000 </r>
       <r>   -3.1126    1.0000 </r>
       <r>   -3.0368    1.0000 </r>
       <r>   -2.9993    1.0000 </r>
       <r>   -2.9680    1.0000 </r>
       <r>   -2.9065    1.0000 </r>
       <r>   -2.8354    1.0000 </r>
       <r>   -2.7913    1.0000 </r>
       <r>   -2.7611    1.0000 </r>
       <r>   -2.7016    1.0000 </r>
       <r>   -2.5717    1.0000 </r>
       <r>   -2.3351    1.0000 </r>
       <r>   -2.2627    1.0000 </r>
       <r>   -2.2120    1.0000 </r>
       <r>   -2.1249    1.0000 </r>
       <r>   -2.0709    1.0000 </r>
       <r>   -2.0302    1.0000 </r>
       <r>   -1.9448    1.0000 </r>
       <r>   -1.8168    1.0000 </r>
       <r>   -1.8028    1.0000 </r>
       <r>   -1.7464    1.0000 </r>
       <r>   -1.6628    1.0000 </r>
       <r>   -1.5441    1.0000 </r>
       <r>   -1.5093    1.0000 </r>
       <r>   -1.3376    1.0005 </r>
       <r>   -1.2952    1.0014 </r>
       <r>   -1.1688    1.0133 </r>
       <r>   -1.1097    1.0261 </r>
       <r>   -1.0708    1.0337 </r>
       <r>   -0.9695    0.9979 </r>
       <r>   -0.8841    0.8141 </r>
       <r>   -0.8124    0.5398 </r>
       <r>   -0.7863    0.4297 </r>
       <r>   -0.6674    0.0480 </r>
       <r>   -0.5416   -0.0345 </r>
       <r>   -0.3829   -0.0057 </r>
       <r>    0.0428   -0.0000 </r>
       <r>    0.6575   -0.0000 </r>
       <r>    0.6919   -0.0000 </r>
       <r>    0.9730   -0.0000 </r>
       <r>    1.7966   -0.0000 </r>
       <r>    2.0037   -0.0000 </r>
       <r>    2.3016   -0.0000 </r>
       <r>    2.3494   -0.0000 </r>
       <r>    2.4815   -0.0000 </r>
       <r>    3.4206   -0.0000 </r>
       <r>    3.9858   -0.0000 </r>
      </set>
      <set comment="kpoint 7">
       <r>   -9.7919    1.0000 </r>
       <r>   -8.5270    1.0000 </r>
       <r>   -7.4730    1.0000 </r>
       <r>   -7.4669    1.0000 </r>
       <r>   -7.3445    1.0000 </r>
       <r>   -7.2482    1.0000 </r>
       <r>   -7.1671    1.0000 </r>
       <r>   -7.0876    1.0000 </r>
       <r>   -7.0383    1.0000 </r>
       <r>   -6.9605    1.0000 </r>
       <r>   -6.7131    1.0000 </r>
       <r>   -6.6349    1.0000 </r>
       <r>   -6.6124    1.0000 </r>
       <r>   -6.5948    1.0000 </r>
       <r>   -6.5042    1.0000 </r>
       <r>   -6.4050    1.0000 </r>
       <r>   -6.3128    1.0000 </r>
       <r>   -6.2349    1.0000 </r>
       <r>   -6.1527    1.0000 </r>
       <r>   -5.6862    1.0000 </r>
       <r>   -5.6716    1.0000 </r>
       <r>   -5.6007    1.0000 </r>
       <r>   -5.0336    1.0000 </r>
       <r>   -4.9386    1.0000 </r>
       <r>   -4.8952    1.0000 </r>
       <r>   -4.8109    1.0000 </r>
       <r>   -4.7180    1.0000 </r>
       <r>   -4.5946    1.0000 </r>
       <r>   -4.5241    1.0000 </r>
       <r>   -4.4962    1.0000 </r>
       <r>   -4.4625    1.0000 </r>
       <r>   -4.2336    1.0000 </r>
       <r>   -4.1878    1.0000 </r>
       <r>   -4.1612    1.0000 </r>
       <r>   -4.0854    1.0000 </r>
       <r>   -4.0019    1.0000 </r>
       <r>   -3.9775    1.0000 </r>
       <r>   -3.9323    1.0000 </r>
       <r>   -3.9167    1.0000 </r>
       <r>   -3.8304    1.0000 </r>
       <r>   -3.8077    1.0000 </r>
       <r>   -3.7647    1.0000 </r>
       <r>   -3.7264    1.0000 </r>
       <r>   -3.6789    1.0000 </r>
       <r>   -3.6205    1.0000 </r>
       <r>   -3.4882    1.0000 </r>
       <r>   -3.4712    1.0000 </r>
       <r>   -3.3003    1.0000 </r>
       <r>   -2.9867    1.0000 </r>
       <r>   -2.8849    1.0000 </r>
       <r>   -2.7548    1.0000 </r>
       <r>   -2.5875    1.0000 </r>
       <r>   -2.5243    1.0000 </r>
       <r>   -2.4704    1.0000 </r>
       <r>   -2.3576    1.0000 </r>
       <r>   -2.3281    1.0000 </r>
       <r>   -2.2152    1.0000 </r>
       <r>   -2.1696    1.0000 </r>
       <r>   -2.1412    1.0000 </r>
       <r>   -2.0885    1.0000 </r>
       <r>   -2.0028    1.0000 </r>
       <r>   -1.8959    1.0000 </r>
       <r>   -1.8752    1.0000 </r>
       <r>   -1.8381    1.0000 </r>
       <r>   -1.8029    1.0000 </r>
       <r>   -1.6195    1.0000 </r>
       <r>   -1.4822    1.0000 </r>
       <r>   -1.3874    1.0001 </r>
       <r>   -1.3365    1.0005 </r>
       <r>   -1.2887    1.0016 </r>
       <r>   -1.2168    1.0064 </r>
       <r>   -1.1886    1.0100 </r>
       <r>   -1.1069    1.0268 </r>
       <r>   -1.0448    1.0354 </r>
       <r>   -1.0274    1.0336 </r>
       <r>   -0.9697    0.9981 </r>
       <r>   -0.9282    0.9314 </r>
       <r>   -0.8572    0.7203 </r>
       <r>   -0.8280    0.6050 </r>
       <r>   -0.7488    0.2797 </r>
       <r>   -0.6729    0.0587 </r>
       <r>   -0.5980   -0.0275 </r>
       <r>   -0.5232   -0.0318 </r>
       <r>   -0.4343   -0.0128 </r>
       <r>   -0.3686   -0.0044 </r>
       <r>    0.0027   -0.0000 </r>
       <r>    0.4242   -0.0000 </r>
       <r>    0.6820   -0.0000 </r>
       <r>    0.8503   -0.0000 </r>
       <r>    1.3690   -0.0000 </r>
       <r>    1.5844   -0.0000 </r>
       <r>    1.7534   -0.0000 </r>
       <r>    2.1937   -0.0000 </r>
       <r>    2.8675   -0.0000 </r>
       <r>    3.0643   -0.0000 </r>
       <r>    3.6533   -0.0000 </r>
      </set>
      <set comment="kpoint 8">
       <r>  -10.1264    1.0000 </r>
       <r>   -8.8535    1.0000 </r>
       <r>   -7.7986    1.0000 </r>
       <r>   -7.6607    1.0000 </r>
       <r>   -7.4377    1.0000 </r>
       <r>   -7.4276    1.0000 </r>
       <r>   -7.3592    1.0000 </r>
       <r>   -7.2674    1.0000 </r>
       <r>   -7.2615    1.0000 </r>
       <r>   -7.2209    1.0000 </r>
       <r>   -6.8084    1.0000 </r>
       <r>   -6.7812    1.0000 </r>
       <r>   -6.7772    1.0000 </r>
       <r>   -6.7692    1.0000 </r>
       <r>   -6.7408    1.0000 </r>
       <r>   -6.5702    1.0000 </r>
       <r>   -6.5267    1.0000 </r>
       <r>   -6.4925    1.0000 </r>
       <r>   -6.4474    1.0000 </r>
       <r>   -5.7759    1.0000 </r>
       <r>   -5.7724    1.0000 </r>
       <r>   -5.6892    1.0000 </r>
       <r>   -4.9518    1.0000 </r>
       <r>   -4.9265    1.0000 </r>
       <r>   -4.8494    1.0000 </r>
       <r>   -4.6937    1.0000 </r>
       <r>   -4.6346    1.0000 </r>
       <r>   -4.6267    1.0000 </r>
       <r>   -4.5706    1.0000 </r>
       <r>   -4.5196    1.0000 </r>
       <r>   -4.3794    1.0000 </r>
       <r>   -4.2475    1.0000 </r>
       <r>   -4.1541    1.0000 </r>
       <r>   -4.1233    1.0000 </r>
       <r>   -4.0885    1.0000 </r>
       <r>   -4.0260    1.0000 </r>
       <r>   -3.9751    1.0000 </r>
       <r>   -3.9540    1.0000 </r>
       <r>   -3.9117    1.0000 </r>
       <r>   -3.8907    1.0000 </r>
       <r>   -3.7773    1.0000 </r>
       <r>   -3.7133    1.0000 </r>
       <r>   -3.5652    1.0000 </r>
       <r>   -3.5249    1.0000 </r>
       <r>   -3.5076    1.0000 </r>
       <r>   -3.2919    1.0000 </r>
       <r>   -3.1898    1.0000 </r>
       <r>   -3.0293    1.0000 </r>
       <r>   -2.9369    1.0000 </r>
       <r>   -2.7958    1.0000 </r>
       <r>   -2.7277    1.0000 </r>
       <r>   -2.3590    1.0000 </r>
       <r>   -2.3403    1.0000 </r>
       <r>   -2.1874    1.0000 </r>
       <r>   -2.1178    1.0000 </r>
       <r>   -1.8973    1.0000 </r>
       <r>   -1.8843    1.0000 </r>
       <r>   -1.7812    1.0000 </r>
       <r>   -1.7460    1.0000 </r>
       <r>   -1.7171    1.0000 </r>
       <r>   -1.6456    1.0000 </r>
       <r>   -1.6305    1.0000 </r>
       <r>   -1.4064    1.0001 </r>
       <r>   -1.3391    1.0005 </r>
       <r>   -1.2831    1.0018 </r>
       <r>   -1.2094    1.0072 </r>
       <r>   -1.1716    1.0128 </r>
       <r>   -1.0085    1.0278 </r>
       <r>   -0.9726    1.0014 </r>
       <r>   -0.9477    0.9679 </r>
       <r>   -0.9188    0.9103 </r>
       <r>   -0.8717    0.7727 </r>
       <r>   -0.8596    0.7294 </r>
       <r>   -0.7959    0.4700 </r>
       <r>   -0.7485    0.2786 </r>
       <r>   -0.6968    0.1133 </r>
       <r>   -0.6412    0.0077 </r>
       <r>   -0.6358    0.0013 </r>
       <r>   -0.5425   -0.0346 </r>
       <r>   -0.4811   -0.0226 </r>
       <r>   -0.4531   -0.0165 </r>
       <r>   -0.3712   -0.0046 </r>
       <r>   -0.3039   -0.0012 </r>
       <r>   -0.2906   -0.0009 </r>
       <r>    0.0107   -0.0000 </r>
       <r>    0.0426   -0.0000 </r>
       <r>    0.3737   -0.0000 </r>
       <r>    0.8086   -0.0000 </r>
       <r>    0.9255   -0.0000 </r>
       <r>    0.9684   -0.0000 </r>
       <r>    1.4623   -0.0000 </r>
       <r>    1.5052   -0.0000 </r>
       <r>    1.9946   -0.0000 </r>
       <r>    2.2644   -0.0000 </r>
       <r>    2.5255   -0.0000 </r>
       <r>    3.2411   -0.0000 </r>
      </set>
      <set comment="kpoint 9">
       <r>   -9.9239    1.0000 </r>
       <r>   -8.6549    1.0000 </r>
       <r>   -7.5991    1.0000 </r>
       <r>   -7.4775    1.0000 </r>
       <r>   -7.4655    1.0000 </r>
       <r>   -7.2484    1.0000 </r>
       <r>   -7.2380    1.0000 </r>
       <r>   -7.2182    1.0000 </r>
       <r>   -7.0844    1.0000 </r>
       <r>   -7.0830    1.0000 </r>
       <r>   -6.7502    1.0000 </r>
       <r>   -6.7003    1.0000 </r>
       <r>   -6.6730    1.0000 </r>
       <r>   -6.6693    1.0000 </r>
       <r>   -6.5734    1.0000 </r>
       <r>   -6.4809    1.0000 </r>
       <r>   -6.3990    1.0000 </r>
       <r>   -6.3214    1.0000 </r>
       <r>   -6.2819    1.0000 </r>
       <r>   -5.7228    1.0000 </r>
       <r>   -5.7098    1.0000 </r>
       <r>   -5.6350    1.0000 </r>
       <r>   -4.9926    1.0000 </r>
       <r>   -4.9262    1.0000 </r>
       <r>   -4.8741    1.0000 </r>
       <r>   -4.7689    1.0000 </r>
       <r>   -4.6673    1.0000 </r>
       <r>   -4.5593    1.0000 </r>
       <r>   -4.5504    1.0000 </r>
       <r>   -4.5042    1.0000 </r>
       <r>   -4.4788    1.0000 </r>
       <r>   -4.1930    1.0000 </r>
       <r>   -4.1501    1.0000 </r>
       <r>   -4.1350    1.0000 </r>
       <r>   -4.0880    1.0000 </r>
       <r>   -4.0520    1.0000 </r>
       <r>   -3.9923    1.0000 </r>
       <r>   -3.9503    1.0000 </r>
       <r>   -3.8649    1.0000 </r>
       <r>   -3.8406    1.0000 </r>
       <r>   -3.8112    1.0000 </r>
       <r>   -3.7330    1.0000 </r>
       <r>   -3.6541    1.0000 </r>
       <r>   -3.6386    1.0000 </r>
       <r>   -3.5704    1.0000 </r>
       <r>   -3.4970    1.0000 </r>
       <r>   -3.4183    1.0000 </r>
       <r>   -3.1654    1.0000 </r>
       <r>   -2.9766    1.0000 </r>
       <r>   -2.8403    1.0000 </r>
       <r>   -2.7273    1.0000 </r>
       <r>   -2.4795    1.0000 </r>
       <r>   -2.4348    1.0000 </r>
       <r>   -2.4000    1.0000 </r>
       <r>   -2.2029    1.0000 </r>
       <r>   -2.1267    1.0000 </r>
       <r>   -2.0512    1.0000 </r>
       <r>   -2.0449    1.0000 </r>
       <r>   -1.9431    1.0000 </r>
       <r>   -1.9168    1.0000 </r>
       <r>   -1.9000    1.0000 </r>
       <r>   -1.7839    1.0000 </r>
       <r>   -1.7604    1.0000 </r>
       <r>   -1.7266    1.0000 </r>
       <r>   -1.5559    1.0000 </r>
       <r>   -1.4338    1.0000 </r>
       <r>   -1.3642    1.0003 </r>
       <r>   -1.2881    1.0016 </r>
       <r>   -1.2461    1.0037 </r>
       <r>   -1.1349    1.0203 </r>
       <r>   -1.1098    1.0261 </r>
       <r>   -1.0748    1.0332 </r>
       <r>   -1.0158    1.0306 </r>
       <r>   -0.9619    0.9886 </r>
       <r>   -0.9266    0.9279 </r>
       <r>   -0.8789    0.7969 </r>
       <r>   -0.8111    0.5343 </r>
       <r>   -0.8086    0.5237 </r>
       <r>   -0.7563    0.3085 </r>
       <r>   -0.6704    0.0537 </r>
       <r>   -0.5871   -0.0315 </r>
       <r>   -0.5241   -0.0320 </r>
       <r>   -0.4576   -0.0174 </r>
       <r>   -0.4109   -0.0091 </r>
       <r>   -0.3433   -0.0027 </r>
       <r>   -0.2089   -0.0001 </r>
       <r>    0.7838   -0.0000 </r>
       <r>    0.8781   -0.0000 </r>
       <r>    0.8969   -0.0000 </r>
       <r>    1.0391   -0.0000 </r>
       <r>    1.5049   -0.0000 </r>
       <r>    1.5365   -0.0000 </r>
       <r>    2.2008   -0.0000 </r>
       <r>    2.2501   -0.0000 </r>
       <r>    3.1970   -0.0000 </r>
       <r>    3.6818   -0.0000 </r>
      </set>
      <set comment="kpoint 10">
       <r>   -9.5980    1.0000 </r>
       <r>   -8.3414    1.0000 </r>
       <r>   -7.4216    1.0000 </r>
       <r>   -7.2884    1.0000 </r>
       <r>   -7.2737    1.0000 </r>
       <r>   -7.1656    1.0000 </r>
       <r>   -7.0682    1.0000 </r>
       <r>   -6.9825    1.0000 </r>
       <r>   -6.9021    1.0000 </r>
       <r>   -6.8203    1.0000 </r>
       <r>   -6.6392    1.0000 </r>
       <r>   -6.5585    1.0000 </r>
       <r>   -6.5174    1.0000 </r>
       <r>   -6.4829    1.0000 </r>
       <r>   -6.4292    1.0000 </r>
       <r>   -6.2766    1.0000 </r>
       <r>   -6.2043    1.0000 </r>
       <r>   -6.0949    1.0000 </r>
       <r>   -5.9752    1.0000 </r>
       <r>   -5.6282    1.0000 </r>
       <r>   -5.6168    1.0000 </r>
       <r>   -5.5504    1.0000 </r>
       <r>   -5.1131    1.0000 </r>
       <r>   -4.9873    1.0000 </r>
       <r>   -4.9105    1.0000 </r>
       <r>   -4.8495    1.0000 </r>
       <r>   -4.8072    1.0000 </r>
       <r>   -4.6969    1.0000 </r>
       <r>   -4.5177    1.0000 </r>
       <r>   -4.4801    1.0000 </r>
       <r>   -4.4141    1.0000 </r>
       <r>   -4.2890    1.0000 </r>
       <r>   -4.2275    1.0000 </r>
       <r>   -4.2105    1.0000 </r>
       <r>   -4.1272    1.0000 </r>
       <r>   -4.0772    1.0000 </r>
       <r>   -3.9980    1.0000 </r>
       <r>   -3.9301    1.0000 </r>
       <r>   -3.8990    1.0000 </r>
       <r>   -3.8554    1.0000 </r>
       <r>   -3.8335    1.0000 </r>
       <r>   -3.7964    1.0000 </r>
       <r>   -3.7863    1.0000 </r>
       <r>   -3.7535    1.0000 </r>
       <r>   -3.5935    1.0000 </r>
       <r>   -3.5287    1.0000 </r>
       <r>   -3.4609    1.0000 </r>
       <r>   -3.3277    1.0000 </r>
       <r>   -3.0419    1.0000 </r>
       <r>   -2.9529    1.0000 </r>
       <r>   -2.8246    1.0000 </r>
       <r>   -2.7742    1.0000 </r>
       <r>   -2.6436    1.0000 </r>
       <r>   -2.6127    1.0000 </r>
       <r>   -2.5896    1.0000 </r>
       <r>   -2.5548    1.0000 </r>
       <r>   -2.5337    1.0000 </r>
       <r>   -2.4311    1.0000 </r>
       <r>   -2.3879    1.0000 </r>
       <r>   -2.3379    1.0000 </r>
       <r>   -2.1891    1.0000 </r>
       <r>   -2.0900    1.0000 </r>
       <r>   -2.0163    1.0000 </r>
       <r>   -1.9193    1.0000 </r>
       <r>   -1.8802    1.0000 </r>
       <r>   -1.7643    1.0000 </r>
       <r>   -1.6491    1.0000 </r>
       <r>   -1.6129    1.0000 </r>
       <r>   -1.5479    1.0000 </r>
       <r>   -1.4585    1.0000 </r>
       <r>   -1.4451    1.0000 </r>
       <r>   -1.3012    1.0012 </r>
       <r>   -1.1675    1.0136 </r>
       <r>   -1.1215    1.0234 </r>
       <r>   -1.0365    1.0349 </r>
       <r>   -1.0012    1.0242 </r>
       <r>   -0.9785    1.0074 </r>
       <r>   -0.9135    0.8975 </r>
       <r>   -0.8898    0.8319 </r>
       <r>   -0.8018    0.4950 </r>
       <r>   -0.6564    0.0292 </r>
       <r>   -0.6125   -0.0195 </r>
       <r>   -0.5651   -0.0353 </r>
       <r>   -0.4951   -0.0259 </r>
       <r>   -0.2999   -0.0011 </r>
       <r>   -0.0285   -0.0000 </r>
       <r>    0.2504   -0.0000 </r>
       <r>    0.3031   -0.0000 </r>
       <r>    0.6907   -0.0000 </r>
       <r>    1.2220   -0.0000 </r>
       <r>    1.7960   -0.0000 </r>
       <r>    2.2480   -0.0000 </r>
       <r>    2.8180   -0.0000 </r>
       <r>    2.9820   -0.0000 </r>
       <r>    3.3358   -0.0000 </r>
       <r>    3.4069   -0.0000 </r>
      </set>
      <set comment="kpoint 11">
       <r>   -9.0502    1.0000 </r>
       <r>   -7.8387    1.0000 </r>
       <r>   -7.4871    1.0000 </r>
       <r>   -7.2476    1.0000 </r>
       <r>   -6.9233    1.0000 </r>
       <r>   -6.8079    1.0000 </r>
       <r>   -6.7795    1.0000 </r>
       <r>   -6.6850    1.0000 </r>
       <r>   -6.5351    1.0000 </r>
       <r>   -6.4958    1.0000 </r>
       <r>   -6.4747    1.0000 </r>
       <r>   -6.3702    1.0000 </r>
       <r>   -6.2435    1.0000 </r>
       <r>   -6.2091    1.0000 </r>
       <r>   -6.0745    1.0000 </r>
       <r>   -5.9922    1.0000 </r>
       <r>   -5.8742    1.0000 </r>
       <r>   -5.7626    1.0000 </r>
       <r>   -5.6514    1.0000 </r>
       <r>   -5.4979    1.0000 </r>
       <r>   -5.4234    1.0000 </r>
       <r>   -5.3786    1.0000 </r>
       <r>   -5.2779    1.0000 </r>
       <r>   -5.1984    1.0000 </r>
       <r>   -5.0896    1.0000 </r>
       <r>   -4.9953    1.0000 </r>
       <r>   -4.9121    1.0000 </r>
       <r>   -4.8431    1.0000 </r>
       <r>   -4.7134    1.0000 </r>
       <r>   -4.6145    1.0000 </r>
       <r>   -4.5680    1.0000 </r>
       <r>   -4.4997    1.0000 </r>
       <r>   -4.4217    1.0000 </r>
       <r>   -4.3668    1.0000 </r>
       <r>   -4.2477    1.0000 </r>
       <r>   -4.1992    1.0000 </r>
       <r>   -4.1351    1.0000 </r>
       <r>   -4.0968    1.0000 </r>
       <r>   -4.0331    1.0000 </r>
       <r>   -4.0094    1.0000 </r>
       <r>   -3.9225    1.0000 </r>
       <r>   -3.8842    1.0000 </r>
       <r>   -3.7790    1.0000 </r>
       <r>   -3.6894    1.0000 </r>
       <r>   -3.5863    1.0000 </r>
       <r>   -3.5671    1.0000 </r>
       <r>   -3.4811    1.0000 </r>
       <r>   -3.4098    1.0000 </r>
       <r>   -3.3519    1.0000 </r>
       <r>   -3.2966    1.0000 </r>
       <r>   -3.1782    1.0000 </r>
       <r>   -3.1349    1.0000 </r>
       <r>   -3.0286    1.0000 </r>
       <r>   -2.9888    1.0000 </r>
       <r>   -2.9416    1.0000 </r>
       <r>   -2.8798    1.0000 </r>
       <r>   -2.8269    1.0000 </r>
       <r>   -2.7779    1.0000 </r>
       <r>   -2.7440    1.0000 </r>
       <r>   -2.6285    1.0000 </r>
       <r>   -2.4677    1.0000 </r>
       <r>   -2.4001    1.0000 </r>
       <r>   -2.3236    1.0000 </r>
       <r>   -2.2259    1.0000 </r>
       <r>   -2.0854    1.0000 </r>
       <r>   -2.0142    1.0000 </r>
       <r>   -1.9497    1.0000 </r>
       <r>   -1.8930    1.0000 </r>
       <r>   -1.8002    1.0000 </r>
       <r>   -1.7106    1.0000 </r>
       <r>   -1.6147    1.0000 </r>
       <r>   -1.4980    1.0000 </r>
       <r>   -1.3019    1.0012 </r>
       <r>   -1.2575    1.0030 </r>
       <r>   -1.1639    1.0142 </r>
       <r>   -1.1138    1.0252 </r>
       <r>   -1.0479    1.0355 </r>
       <r>   -0.9974    1.0220 </r>
       <r>   -0.9212    0.9160 </r>
       <r>   -0.8743    0.7817 </r>
       <r>   -0.8043    0.5056 </r>
       <r>   -0.7632    0.3354 </r>
       <r>   -0.7085    0.1455 </r>
       <r>   -0.6716    0.0561 </r>
       <r>   -0.5753   -0.0342 </r>
       <r>   -0.3648   -0.0041 </r>
       <r>   -0.1705   -0.0000 </r>
       <r>    0.3423   -0.0000 </r>
       <r>    0.7929   -0.0000 </r>
       <r>    0.8821   -0.0000 </r>
       <r>    2.5228   -0.0000 </r>
       <r>    2.7938   -0.0000 </r>
       <r>    2.9242   -0.0000 </r>
       <r>    2.9853   -0.0000 </r>
       <r>    3.5912   -0.0000 </r>
       <r>    3.8741   -0.0000 </r>
      </set>
      <set comment="kpoint 12">
       <r>   -8.3670    1.0000 </r>
       <r>   -8.0227    1.0000 </r>
       <r>   -7.3001    1.0000 </r>
       <r>   -7.1007    1.0000 </r>
       <r>   -7.0834    1.0000 </r>
       <r>   -6.6001    1.0000 </r>
       <r>   -6.4666    1.0000 </r>
       <r>   -6.3442    1.0000 </r>
       <r>   -6.2929    1.0000 </r>
       <r>   -6.2126    1.0000 </r>
       <r>   -6.1598    1.0000 </r>
       <r>   -6.1238    1.0000 </r>
       <r>   -6.0205    1.0000 </r>
       <r>   -5.8867    1.0000 </r>
       <r>   -5.8363    1.0000 </r>
       <r>   -5.7821    1.0000 </r>
       <r>   -5.6597    1.0000 </r>
       <r>   -5.6097    1.0000 </r>
       <r>   -5.5352    1.0000 </r>
       <r>   -5.4519    1.0000 </r>
       <r>   -5.4014    1.0000 </r>
       <r>   -5.3168    1.0000 </r>
       <r>   -5.2772    1.0000 </r>
       <r>   -5.2370    1.0000 </r>
       <r>   -5.2099    1.0000 </r>
       <r>   -5.1354    1.0000 </r>
       <r>   -5.0944    1.0000 </r>
       <r>   -5.0419    1.0000 </r>
       <r>   -4.8696    1.0000 </r>
       <r>   -4.7636    1.0000 </r>
       <r>   -4.6925    1.0000 </r>
       <r>   -4.6115    1.0000 </r>
       <r>   -4.5505    1.0000 </r>
       <r>   -4.5027    1.0000 </r>
       <r>   -4.4366    1.0000 </r>
       <r>   -4.3739    1.0000 </r>
       <r>   -4.3194    1.0000 </r>
       <r>   -4.2879    1.0000 </r>
       <r>   -4.2499    1.0000 </r>
       <r>   -4.1649    1.0000 </r>
       <r>   -4.1372    1.0000 </r>
       <r>   -3.9771    1.0000 </r>
       <r>   -3.8807    1.0000 </r>
       <r>   -3.8127    1.0000 </r>
       <r>   -3.7614    1.0000 </r>
       <r>   -3.7099    1.0000 </r>
       <r>   -3.6684    1.0000 </r>
       <r>   -3.6101    1.0000 </r>
       <r>   -3.5723    1.0000 </r>
       <r>   -3.5063    1.0000 </r>
       <r>   -3.3757    1.0000 </r>
       <r>   -3.2646    1.0000 </r>
       <r>   -3.1102    1.0000 </r>
       <r>   -3.0047    1.0000 </r>
       <r>   -2.9253    1.0000 </r>
       <r>   -2.9083    1.0000 </r>
       <r>   -2.8777    1.0000 </r>
       <r>   -2.7758    1.0000 </r>
       <r>   -2.6300    1.0000 </r>
       <r>   -2.6001    1.0000 </r>
       <r>   -2.4737    1.0000 </r>
       <r>   -2.4309    1.0000 </r>
       <r>   -2.3640    1.0000 </r>
       <r>   -2.3001    1.0000 </r>
       <r>   -2.1790    1.0000 </r>
       <r>   -2.1368    1.0000 </r>
       <r>   -2.0593    1.0000 </r>
       <r>   -1.9769    1.0000 </r>
       <r>   -1.9119    1.0000 </r>
       <r>   -1.8384    1.0000 </r>
       <r>   -1.7530    1.0000 </r>
       <r>   -1.7022    1.0000 </r>
       <r>   -1.6486    1.0000 </r>
       <r>   -1.5246    1.0000 </r>
       <r>   -1.4270    1.0000 </r>
       <r>   -1.3263    1.0007 </r>
       <r>   -1.2497    1.0035 </r>
       <r>   -1.1470    1.0177 </r>
       <r>   -1.0368    1.0349 </r>
       <r>   -0.9820    1.0105 </r>
       <r>   -0.9591    0.9849 </r>
       <r>   -0.8768    0.7902 </r>
       <r>   -0.7798    0.4026 </r>
       <r>   -0.6340   -0.0007 </r>
       <r>   -0.3935   -0.0068 </r>
       <r>   -0.2674   -0.0005 </r>
       <r>   -0.1861   -0.0001 </r>
       <r>   -0.1129   -0.0000 </r>
       <r>    0.8577   -0.0000 </r>
       <r>    1.5040   -0.0000 </r>
       <r>    1.8224   -0.0000 </r>
       <r>    2.9126   -0.0000 </r>
       <r>    2.9293   -0.0000 </r>
       <r>    3.8065   -0.0000 </r>
       <r>    3.8679   -0.0000 </r>
       <r>    4.4046   -0.0000 </r>
      </set>
      <set comment="kpoint 13">
       <r>   -8.7171    1.0000 </r>
       <r>   -7.7223    1.0000 </r>
       <r>   -7.5545    1.0000 </r>
       <r>   -7.1553    1.0000 </r>
       <r>   -6.9672    1.0000 </r>
       <r>   -6.6641    1.0000 </r>
       <r>   -6.5845    1.0000 </r>
       <r>   -6.4281    1.0000 </r>
       <r>   -6.4042    1.0000 </r>
       <r>   -6.3855    1.0000 </r>
       <r>   -6.3134    1.0000 </r>
       <r>   -6.2212    1.0000 </r>
       <r>   -6.0952    1.0000 </r>
       <r>   -6.0445    1.0000 </r>
       <r>   -5.9129    1.0000 </r>
       <r>   -5.8800    1.0000 </r>
       <r>   -5.7071    1.0000 </r>
       <r>   -5.6434    1.0000 </r>
       <r>   -5.5395    1.0000 </r>
       <r>   -5.4477    1.0000 </r>
       <r>   -5.4093    1.0000 </r>
       <r>   -5.3489    1.0000 </r>
       <r>   -5.2744    1.0000 </r>
       <r>   -5.2190    1.0000 </r>
       <r>   -5.1641    1.0000 </r>
       <r>   -5.0966    1.0000 </r>
       <r>   -5.0351    1.0000 </r>
       <r>   -4.9221    1.0000 </r>
       <r>   -4.8168    1.0000 </r>
       <r>   -4.7762    1.0000 </r>
       <r>   -4.6494    1.0000 </r>
       <r>   -4.5888    1.0000 </r>
       <r>   -4.5070    1.0000 </r>
       <r>   -4.4837    1.0000 </r>
       <r>   -4.3477    1.0000 </r>
       <r>   -4.3204    1.0000 </r>
       <r>   -4.2082    1.0000 </r>
       <r>   -4.1513    1.0000 </r>
       <r>   -4.0754    1.0000 </r>
       <r>   -4.0475    1.0000 </r>
       <r>   -3.9674    1.0000 </r>
       <r>   -3.9078    1.0000 </r>
       <r>   -3.8908    1.0000 </r>
       <r>   -3.8393    1.0000 </r>
       <r>   -3.7884    1.0000 </r>
       <r>   -3.7147    1.0000 </r>
       <r>   -3.5944    1.0000 </r>
       <r>   -3.5462    1.0000 </r>
       <r>   -3.4593    1.0000 </r>
       <r>   -3.3535    1.0000 </r>
       <r>   -3.2921    1.0000 </r>
       <r>   -3.2561    1.0000 </r>
       <r>   -3.1191    1.0000 </r>
       <r>   -3.0190    1.0000 </r>
       <r>   -2.9196    1.0000 </r>
       <r>   -2.9002    1.0000 </r>
       <r>   -2.8582    1.0000 </r>
       <r>   -2.7681    1.0000 </r>
       <r>   -2.6639    1.0000 </r>
       <r>   -2.6278    1.0000 </r>
       <r>   -2.5472    1.0000 </r>
       <r>   -2.4442    1.0000 </r>
       <r>   -2.4068    1.0000 </r>
       <r>   -2.3046    1.0000 </r>
       <r>   -2.1709    1.0000 </r>
       <r>   -2.1110    1.0000 </r>
       <r>   -2.0165    1.0000 </r>
       <r>   -1.9727    1.0000 </r>
       <r>   -1.8786    1.0000 </r>
       <r>   -1.7712    1.0000 </r>
       <r>   -1.6539    1.0000 </r>
       <r>   -1.5574    1.0000 </r>
       <r>   -1.5290    1.0000 </r>
       <r>   -1.3633    1.0003 </r>
       <r>   -1.3037    1.0011 </r>
       <r>   -1.2253    1.0055 </r>
       <r>   -1.1435    1.0184 </r>
       <r>   -1.0553    1.0353 </r>
       <r>   -1.0282    1.0337 </r>
       <r>   -0.9939    1.0197 </r>
       <r>   -0.9363    0.9478 </r>
       <r>   -0.8583    0.7245 </r>
       <r>   -0.7632    0.3353 </r>
       <r>   -0.6516    0.0218 </r>
       <r>   -0.5259   -0.0323 </r>
       <r>   -0.3007   -0.0011 </r>
       <r>   -0.1334   -0.0000 </r>
       <r>    0.0400   -0.0000 </r>
       <r>    0.8351   -0.0000 </r>
       <r>    1.1923   -0.0000 </r>
       <r>    2.1567   -0.0000 </r>
       <r>    2.9170   -0.0000 </r>
       <r>    2.9516   -0.0000 </r>
       <r>    3.3289   -0.0000 </r>
       <r>    3.8011   -0.0000 </r>
       <r>    4.2330   -0.0000 </r>
      </set>
      <set comment="kpoint 14">
       <r>   -9.3480    1.0000 </r>
       <r>   -8.1069    1.0000 </r>
       <r>   -7.3462    1.0000 </r>
       <r>   -7.3413    1.0000 </r>
       <r>   -7.0608    1.0000 </r>
       <r>   -6.9434    1.0000 </r>
       <r>   -6.9408    1.0000 </r>
       <r>   -6.9203    1.0000 </r>
       <r>   -6.6995    1.0000 </r>
       <r>   -6.6767    1.0000 </r>
       <r>   -6.5474    1.0000 </r>
       <r>   -6.4895    1.0000 </r>
       <r>   -6.3886    1.0000 </r>
       <r>   -6.3581    1.0000 </r>
       <r>   -6.2748    1.0000 </r>
       <r>   -6.1163    1.0000 </r>
       <r>   -6.0804    1.0000 </r>
       <r>   -5.9114    1.0000 </r>
       <r>   -5.7957    1.0000 </r>
       <r>   -5.5638    1.0000 </r>
       <r>   -5.5282    1.0000 </r>
       <r>   -5.4780    1.0000 </r>
       <r>   -5.2134    1.0000 </r>
       <r>   -5.0813    1.0000 </r>
       <r>   -4.9604    1.0000 </r>
       <r>   -4.9139    1.0000 </r>
       <r>   -4.8586    1.0000 </r>
       <r>   -4.8133    1.0000 </r>
       <r>   -4.5689    1.0000 </r>
       <r>   -4.4982    1.0000 </r>
       <r>   -4.4615    1.0000 </r>
       <r>   -4.3312    1.0000 </r>
       <r>   -4.2920    1.0000 </r>
       <r>   -4.2765    1.0000 </r>
[...]
       <r>   -4.4599    1.0000 </r>
       <r>   -4.4351    1.0000 </r>
       <r>   -4.3125    1.0000 </r>
       <r>   -4.2369    1.0000 </r>
       <r>   -4.1711    1.0000 </r>
       <r>   -4.1250    1.0000 </r>
       <r>   -4.1186    1.0000 </r>
       <r>   -4.0654    1.0000 </r>
       <r>   -3.9527    1.0000 </r>
       <r>   -3.8243    1.0000 </r>
       <r>   -3.7251    1.0000 </r>
       <r>   -3.7073    1.0000 </r>
       <r>   -3.6844    1.0000 </r>
       <r>   -3.6433    1.0000 </r>
       <r>   -3.6367    1.0000 </r>
       <r>   -3.6013    1.0000 </r>
       <r>   -3.5448    1.0000 </r>
       <r>   -3.3899    1.0000 </r>
       <r>   -3.3094    1.0000 </r>
       <r>   -3.1346    1.0000 </r>
       <r>   -2.9683    1.0000 </r>
       <r>   -2.9411    1.0000 </r>
       <r>   -2.9188    1.0000 </r>
       <r>   -2.8590    1.0000 </r>
       <r>   -2.7980    1.0000 </r>
       <r>   -2.6012    1.0000 </r>
       <r>   -2.5620    1.0000 </r>
       <r>   -2.5298    1.0000 </r>
       <r>   -2.4863    1.0000 </r>
       <r>   -2.4414    1.0000 </r>
       <r>   -2.3357    1.0000 </r>
       <r>   -2.2326    1.0000 </r>
       <r>   -2.1551    1.0000 </r>
       <r>   -2.1180    1.0000 </r>
       <r>   -2.1025    1.0000 </r>
       <r>   -2.0471    1.0000 </r>
       <r>   -1.9568    1.0000 </r>
       <r>   -1.9181    1.0000 </r>
       <r>   -1.8413    1.0000 </r>
       <r>   -1.7356    1.0000 </r>
       <r>   -1.6528    1.0000 </r>
       <r>   -1.4683    1.0000 </r>
       <r>   -1.3277    1.0007 </r>
       <r>   -1.2278    1.0052 </r>
       <r>   -1.1327    1.0208 </r>
       <r>   -0.9431    0.9601 </r>
       <r>   -0.8899    0.8321 </r>
       <r>   -0.8628    0.7410 </r>
       <r>   -0.7831    0.4163 </r>
       <r>   -0.6471    0.0154 </r>
       <r>   -0.5104   -0.0293 </r>
       <r>   -0.4233   -0.0109 </r>
       <r>   -0.3326   -0.0022 </r>
       <r>    0.2436   -0.0000 </r>
       <r>    0.4423   -0.0000 </r>
       <r>    1.4301   -0.0000 </r>
       <r>    1.5570   -0.0000 </r>
       <r>    1.5695   -0.0000 </r>
       <r>    2.3900   -0.0000 </r>
       <r>    3.1158   -0.0000 </r>
       <r>    3.4395   -0.0000 </r>
       <r>    3.9381   -0.0000 </r>
       <r>    4.0099   -0.0000 </r>
      </set>
     </set>
    </set>
   </array>
  </eigenvalues>
  <separator name="orbital magnetization" >
   <v name="MAGDIPOLOUT">      0.00000000      0.00000000      0.00000000</v>
  </separator>
  <dos>
   <i name="efermi">     -0.80298357 </i>
   <total>
    <array>
     <dimension dim="1">gridpoints</dimension>
     <dimension dim="2">spin</dimension>
     <field>energy</field>
     <field>total</field>
     <field>integrated</field>
     <set>
      <set comment="spin 1">
       <r>   -12.1952     0.0000     0.0000 </r>
       <r>   -12.1328     0.0000     0.0000 </r>
       <r>   -12.0705     0.0000     0.0000 </r>
       <r>   -12.0081     0.0000     0.0000 </r>
       <r>   -11.9458     0.0000     0.0000 </r>
       <r>   -11.8834     0.0000     0.0000 </r>
       <r>   -11.8211    -0.0000    -0.0000 </r>
       <r>   -11.7587    -0.0000    -0.0000 </r>
       <r>   -11.6964    -0.0000    -0.0000 </r>
       <r>   -11.6340    -0.0000    -0.0000 </r>
       <r>   -11.5717    -0.0000    -0.0000 </r>
       <r>   -11.5093    -0.0000    -0.0000 </r>
       <r>   -11.4470    -0.0000    -0.0000 </r>
       <r>   -11.3846    -0.0000    -0.0000 </r>
       <r>   -11.3223    -0.0000    -0.0000 </r>
       <r>   -11.2600    -0.0000    -0.0000 </r>
       <r>   -11.1976    -0.0000    -0.0000 </r>
       <r>   -11.1353    -0.0000    -0.0000 </r>
       <r>   -11.0729    -0.0000    -0.0000 </r>
       <r>   -11.0106    -0.0000    -0.0000 </r>
       <r>   -10.9482    -0.0000    -0.0000 </r>
       <r>   -10.8859    -0.0000    -0.0000 </r>
       <r>   -10.8235    -0.0000    -0.0000 </r>
       <r>   -10.7612    -0.0002    -0.0000 </r>
       <r>   -10.6988    -0.0010    -0.0001 </r>
       <r>   -10.6365    -0.0036    -0.0003 </r>
       <r>   -10.5741    -0.0100    -0.0009 </r>
       <r>   -10.5118    -0.0207    -0.0022 </r>
       <r>   -10.4494    -0.0283    -0.0040 </r>
       <r>   -10.3871    -0.0110    -0.0047 </r>
       <r>   -10.3247     0.0616    -0.0008 </r>
       <r>   -10.2624     0.2040     0.0119 </r>
       <r>   -10.2000     0.3953     0.0365 </r>
       <r>   -10.1377     0.5919     0.0734 </r>
       <r>   -10.0754     0.7593     0.1208 </r>
       <r>   -10.0130     0.8791     0.1756 </r>
       <r>    -9.9507     0.9333     0.2338 </r>
       <r>    -9.8883     0.9100     0.2905 </r>
       <r>    -9.8260     0.8295     0.3422 </r>
       <r>    -9.7636     0.7540     0.3892 </r>
       <r>    -9.7013     0.7589     0.4366 </r>
       <r>    -9.6389     0.8710     0.4909 </r>
       <r>    -9.5766     1.0216     0.5545 </r>
       <r>    -9.5142     1.0940     0.6228 </r>
       <r>    -9.4519     1.0386     0.6875 </r>
       <r>    -9.3895     0.9138     0.7445 </r>
       <r>    -9.3272     0.8035     0.7946 </r>
       <r>    -9.2648     0.7412     0.8408 </r>
       <r>    -9.2025     0.7355     0.8866 </r>
       <r>    -9.1401     0.8244     0.9380 </r>
       <r>    -9.0778     1.0429     1.0031 </r>
       <r>    -9.0154     1.3421     1.0867 </r>
       <r>    -8.9531     1.6015     1.1866 </r>
       <r>    -8.8908     1.7448     1.2954 </r>
       <r>    -8.8284     1.8044     1.4079 </r>
       <r>    -8.7661     1.8429     1.5228 </r>
       <r>    -8.7037     1.8543     1.6384 </r>
       <r>    -8.6414     1.7996     1.7506 </r>
       <r>    -8.5790     1.7183     1.8577 </r>
       <r>    -8.5167     1.7423     1.9663 </r>
       <r>    -8.4543     1.9753     2.0895 </r>
       <r>    -8.3920     2.3606     2.2367 </r>
       <r>    -8.3296     2.6805     2.4038 </r>
       <r>    -8.2673     2.7340     2.5743 </r>
       <r>    -8.2049     2.5297     2.7320 </r>
       <r>    -8.1426     2.2638     2.8731 </r>
       <r>    -8.0802     2.1039     3.0043 </r>
       <r>    -8.0179     2.0756     3.1337 </r>
       <r>    -7.9555     2.1914     3.2703 </r>
       <r>    -7.8932     2.5820     3.4313 </r>
       <r>    -7.8309     3.3672     3.6412 </r>
       <r>    -7.7685     4.4041     3.9158 </r>
       <r>    -7.7062     5.3125     4.2471 </r>
       <r>    -7.6438     5.8644     4.6127 </r>
       <r>    -7.5815     6.2675     5.0034 </r>
       <r>    -7.5191     6.9362     5.4359 </r>
       <r>    -7.4568     8.0611     5.9385 </r>
       <r>    -7.3944     9.5348     6.5330 </r>
       <r>    -7.3321    11.1541     7.2284 </r>
       <r>    -7.2697    12.6694     8.0183 </r>
       <r>    -7.2074    13.7268     8.8741 </r>
       <r>    -7.1450    14.0049     9.7473 </r>
       <r>    -7.0827    13.4847    10.5880 </r>
       <r>    -7.0203    12.5854    11.3727 </r>
       <r>    -6.9580    12.0454    12.1237 </r>
       <r>    -6.8956    12.5608    12.9068 </r>
       <r>    -6.8333    14.3671    13.8026 </r>
       <r>    -6.7709    17.0879    14.8680 </r>
       <r>    -6.7086    20.0058    16.1153 </r>
       <r>    -6.6463    22.5020    17.5182 </r>
       <r>    -6.5839    24.2327    19.0290 </r>
       <r>    -6.5216    24.9922    20.5872 </r>
       <r>    -6.4592    24.6877    22.1265 </r>
       <r>    -6.3969    23.5999    23.5978 </r>
       <r>    -6.3345    22.4321    24.9964 </r>
       <r>    -6.2722    21.7862    26.3547 </r>
       <r>    -6.2098    21.5757    27.6999 </r>
       <r>    -6.1475    21.1002    29.0155 </r>
       <r>    -6.0851    19.7429    30.2464 </r>
       <r>    -6.0228    17.5949    31.3434 </r>
       <r>    -5.9604    15.4465    32.3064 </r>
       <r>    -5.8981    14.2274    33.1935 </r>
       <r>    -5.8357    14.4256    34.0929 </r>
       <r>    -5.7734    15.8792    35.0829 </r>
       <r>    -5.7110    17.9281    36.2007 </r>
       <r>    -5.6487    19.7463    37.4318 </r>
       <r>    -5.5863    20.7153    38.7233 </r>
       <r>    -5.5240    20.6787    40.0126 </r>
       <r>    -5.4617    19.9417    41.2559 </r>
       <r>    -5.3993    19.0477    42.4435 </r>
       <r>    -5.3370    18.4780    43.5955 </r>
       <r>    -5.2746    18.4215    44.7441 </r>
       <r>    -5.2123    18.7687    45.9143 </r>
       <r>    -5.1499    19.3358    47.1198 </r>
       <r>    -5.0876    20.0456    48.3696 </r>
       <r>    -5.0252    20.8486    49.6694 </r>
       <r>    -4.9629    21.5665    51.0140 </r>
       <r>    -4.9005    21.9653    52.3835 </r>
       <r>    -4.8382    22.0350    53.7574 </r>
       <r>    -4.7758    22.1723    55.1397 </r>
       <r>    -4.7135    22.9980    56.5736 </r>
       <r>    -4.6511    24.8155    58.1208 </r>
       <r>    -4.5888    27.1174    59.8115 </r>
       <r>    -4.5264    28.7329    61.6029 </r>
       <r>    -4.4641    28.7376    63.3946 </r>
       <r>    -4.4017    27.4063    65.1033 </r>
       <r>    -4.3394    26.1691    66.7349 </r>
       <r>    -4.2771    26.3927    68.3804 </r>
       <r>    -4.2147    28.1374    70.1347 </r>
       <r>    -4.1524    30.2261    72.0192 </r>
       <r>    -4.0900    31.5390    73.9856 </r>
       <r>    -4.0277    32.0652    75.9848 </r>
       <r>    -3.9653    32.6258    78.0189 </r>
       <r>    -3.9030    33.7747    80.1247 </r>
       <r>    -3.8406    35.1951    82.3190 </r>
       <r>    -3.7783    36.1312    84.5717 </r>
       <r>    -3.7159    36.1590    86.8261 </r>
       <r>    -3.6536    35.3214    89.0283 </r>
       <r>    -3.5912    33.6189    91.1243 </r>
       <r>    -3.5289    30.8176    93.0457 </r>
       <r>    -3.4665    26.9830    94.7280 </r>
       <r>    -3.4042    22.8397    96.1520 </r>
       <r>    -3.3418    19.2636    97.3531 </r>
       <r>    -3.2795    16.6863    98.3934 </r>
       <r>    -3.2171    15.2919    99.3468 </r>
       <r>    -3.1548    15.4724   100.3115 </r>
       <r>    -3.0925    17.6004   101.4088 </r>
       <r>    -3.0301    21.3489   102.7399 </r>
       <r>    -2.9678    25.5007   104.3298 </r>
       <r>    -2.9054    28.5380   106.1090 </r>
       <r>    -2.8431    29.4628   107.9460 </r>
       <r>    -2.7807    28.2549   109.7076 </r>
       <r>    -2.7184    25.8084   111.3167 </r>
       <r>    -2.6560    23.4315   112.7776 </r>
       <r>    -2.5937    22.1184   114.1566 </r>
       <r>    -2.5313    22.0446   115.5310 </r>
       <r>    -2.4690    22.6645   116.9441 </r>
       <r>    -2.4066    23.2488   118.3936 </r>
       <r>    -2.3443    23.4195   119.8537 </r>
       <r>    -2.2819    23.3830   121.3116 </r>
       <r>    -2.2196    23.6933   122.7888 </r>
       <r>    -2.1572    24.6893   124.3281 </r>
       <r>    -2.0949    26.1843   125.9606 </r>
       <r>    -2.0325    27.7021   127.6878 </r>
       <r>    -1.9702    28.7876   129.4826 </r>
       <r>    -1.9079    29.0339   131.2928 </r>
       <r>    -1.8455    28.1778   133.0496 </r>
       <r>    -1.7832    26.4311   134.6975 </r>
       <r>    -1.7208    24.4995   136.2250 </r>
       <r>    -1.6585    23.0102   137.6596 </r>
       <r>    -1.5961    21.9943   139.0309 </r>
       <r>    -1.5338    21.0861   140.3456 </r>
       <r>    -1.4714    20.1708   141.6032 </r>
       <r>    -1.4091    19.6623   142.8290 </r>
       <r>    -1.3467    20.1051   144.0826 </r>
       <r>    -1.2844    21.6461   145.4321 </r>
       <r>    -1.2220    23.9812   146.9273 </r>
       <r>    -1.1597    26.6455   148.5886 </r>
       <r>    -1.0973    29.1948   150.4088 </r>
       <r>    -1.0350    31.2772   152.3588 </r>
       <r>    -0.9726    32.7314   154.3996 </r>
       <r>    -0.9103    33.4877   156.4874 </r>
       <r>    -0.8479    33.2667   158.5615 </r>
       <r>    -0.7856    31.6403   160.5342 </r>
       <r>    -0.7233    28.6049   162.3176 </r>
       <r>    -0.6609    24.8831   163.8690 </r>
       <r>    -0.5986    21.4541   165.2066 </r>
       <r>    -0.5362    18.9043   166.3853 </r>
       <r>    -0.4739    17.2401   167.4602 </r>
       <r>    -0.4115    16.0292   168.4595 </r>
       <r>    -0.3492    14.6349   169.3720 </r>
       <r>    -0.2868    12.6134   170.1584 </r>
       <r>    -0.2245    10.0888   170.7874 </r>
       <r>    -0.1621     7.6827   171.2664 </r>
       <r>    -0.0998     6.0189   171.6416 </r>
       <r>    -0.0374     5.2651   171.9699 </r>
       <r>     0.0249     5.0719   172.2861 </r>
       <r>     0.0873     4.9561   172.5951 </r>
       <r>     0.1496     4.7783   172.8930 </r>
       <r>     0.2120     4.7683   173.1903 </r>
       <r>     0.2743     5.0503   173.5052 </r>
       <r>     0.3366     5.3019   173.8358 </r>
       <r>     0.3990     5.0324   174.1495 </r>
       <r>     0.4613     4.1617   174.4090 </r>
       <r>     0.5237     3.2188   174.6097 </r>
       <r>     0.5860     2.9317   174.7925 </r>
       <r>     0.6484     3.6392   175.0193 </r>
       <r>     0.7107     5.0690   175.3354 </r>
       <r>     0.7731     6.5718   175.7451 </r>
       <r>     0.8354     7.5144   176.2136 </r>
       <r>     0.8978     7.5661   176.6853 </r>
       <r>     0.9601     6.8111   177.1100 </r>
       <r>     1.0225     5.6674   177.4633 </r>
       <r>     1.0848     4.6299   177.7520 </r>
       <r>     1.1472     3.9902   178.0008 </r>
       <r>     1.2095     3.7373   178.2338 </r>
       <r>     1.2719     3.6953   178.4642 </r>
       <r>     1.3342     3.7438   178.6976 </r>
       <r>     1.3966     3.8974   178.9406 </r>
       <r>     1.4589     4.1928   179.2020 </r>
       <r>     1.5212     4.5811   179.4876 </r>
       <r>     1.5836     4.9913   179.7988 </r>
       <r>     1.6459     5.4388   180.1379 </r>
       <r>     1.7083     5.9336   180.5079 </r>
       <r>     1.7706     6.2748   180.8991 </r>
       <r>     1.8330     6.1196   181.2806 </r>
       <r>     1.8953     5.3919   181.6168 </r>
       <r>     1.9577     4.5263   181.8990 </r>
       <r>     2.0200     4.1543   182.1580 </r>
       <r>     2.0824     4.5336   182.4407 </r>
       <r>     2.1447     5.3285   182.7729 </r>
       <r>     2.2071     5.9413   183.1433 </r>
       <r>     2.2694     6.0380   183.5197 </r>
       <r>     2.3318     5.7469   183.8780 </r>
       <r>     2.3941     5.3711   184.2129 </r>
       <r>     2.4565     4.9956   184.5244 </r>
       <r>     2.5188     4.4625   184.8026 </r>
       <r>     2.5812     3.6991   185.0332 </r>
       <r>     2.6435     2.9605   185.2178 </r>
       <r>     2.7058     2.7131   185.3870 </r>
       <r>     2.7682     3.2883   185.5920 </r>
       <r>     2.8305     4.5809   185.8776 </r>
       <r>     2.8929     6.0036   186.2519 </r>
       <r>     2.9552     6.7980   186.6757 </r>
       <r>     3.0176     6.5352   187.0832 </r>
       <r>     3.0799     5.4050   187.4202 </r>
       <r>     3.1423     4.0510   187.6728 </r>
       <r>     3.2046     3.1271   187.8677 </r>
       <r>     3.2670     2.9354   188.0507 </r>
       <r>     3.3293     3.3372   188.2588 </r>
       <r>     3.3917     3.9181   188.5031 </r>
       <r>     3.4540     4.2805   188.7700 </r>
       <r>     3.5164     4.2591   189.0355 </r>
       <r>     3.5787     3.9175   189.2798 </r>
       <r>     3.6411     3.4398   189.4942 </r>
       <r>     3.7034     3.0781   189.6861 </r>
       <r>     3.7658     3.0756   189.8779 </r>
       <r>     3.8281     3.4783   190.0947 </r>
       <r>     3.8904     4.0308   190.3461 </r>
       <r>     3.9528     4.3342   190.6163 </r>
       <r>     4.0151     4.1229   190.8733 </r>
       <r>     4.0775     3.4333   191.0874 </r>
       <r>     4.1398     2.5758   191.2480 </r>
       <r>     4.2022     1.9314   191.3684 </r>
       <r>     4.2645     1.7049   191.4747 </r>
       <r>     4.3269     1.8191   191.5881 </r>
       <r>     4.3892     1.9956   191.7125 </r>
       <r>     4.4516     1.9405   191.8335 </r>
       <r>     4.5139     1.5400   191.9295 </r>
       <r>     4.5763     0.9321   191.9876 </r>
       <r>     4.6386     0.3759   192.0111 </r>
       <r>     4.7010     0.0405   192.0136 </r>
       <r>     4.7633    -0.0769   192.0088 </r>
       <r>     4.8257    -0.0750   192.0041 </r>
       <r>     4.8880    -0.0420   192.0015 </r>
       <r>     4.9504    -0.0172   192.0004 </r>
       <r>     5.0127    -0.0055   192.0001 </r>
       <r>     5.0750    -0.0014   192.0000 </r>
       <r>     5.1374    -0.0003   192.0000 </r>
       <r>     5.1997    -0.0000   192.0000 </r>
       <r>     5.2621    -0.0000   192.0000 </r>
       <r>     5.3244    -0.0000   192.0000 </r>
       <r>     5.3868    -0.0000   192.0000 </r>
       <r>     5.4491    -0.0000   192.0000 </r>
       <r>     5.5115    -0.0000   192.0000 </r>
       <r>     5.5738    -0.0000   192.0000 </r>
       <r>     5.6362    -0.0000   192.0000 </r>
       <r>     5.6985    -0.0000   192.0000 </r>
       <r>     5.7609    -0.0000   192.0000 </r>
       <r>     5.8232     0.0000   192.0000 </r>
       <r>     5.8856     0.0000   192.0000 </r>
       <r>     5.9479     0.0000   192.0000 </r>
       <r>     6.0103     0.0000   192.0000 </r>
       <r>     6.0726     0.0000   192.0000 </r>
       <r>     6.1350     0.0000   192.0000 </r>
       <r>     6.1973     0.0000   192.0000 </r>
       <r>     6.2596     0.0000   192.0000 </r>
       <r>     6.3220     0.0000   192.0000 </r>
       <r>     6.3843     0.0000   192.0000 </r>
       <r>     6.4467     0.0000   192.0000 </r>
       <r>     6.5090     0.0000   192.0000 </r>
      </set>
     </set>
    </array>
   </total>
  </dos>
 </calculation>
 <structure name="finalpos" >
  <crystal>
   <varray name="basis" >
    <v>       5.55785930       0.00000000       0.00000000 </v>
    <v>       2.77892965       4.81324734       0.00000000 </v>
    <v>       0.00000000       0.00000000      30.80695967 </v>
   </varray>
   <i name="volume">    824.12780743 </i>
   <varray name="rec_basis" >
    <v>       0.17992539      -0.10387997       0.00000000 </v>
    <v>       0.00000000       0.20775994       0.00000000 </v>
    <v>       0.00000000       0.00000000       0.03246020 </v>
   </varray>
  </crystal>
  <varray name="positions" >
   <v>       0.00000000       0.00000000       0.38952237 </v>
   <v>       0.50000000       0.00000000       0.38952237 </v>
   <v>       0.00000000       0.50000000       0.38952237 </v>
   <v>       0.50000000       0.50000000       0.38952237 </v>
   <v>       0.16666667       0.16666667       0.46468540 </v>
   <v>       0.66666667       0.16666667       0.46468540 </v>
   <v>       0.16666667       0.66666667       0.46468540 </v>
   <v>       0.66666667       0.66666667       0.46468540 </v>
   <v>       0.83333333       0.33333333       0.53920296 </v>
   <v>       0.83333333       0.83333333       0.53920296 </v>
   <v>       0.33333333       0.83333333       0.53920296 </v>
   <v>       0.00000000       0.00000000       0.61486043 </v>
   <v>       0.50000000       0.00000000       0.61486043 </v>
   <v>       0.00000000       0.50000000       0.61486043 </v>
   <v>       0.50000000       0.50000000       0.61486043 </v>
   <v>       0.33333333       0.33333333       0.53920296 </v>
  </varray>
  <varray name="selective"  type="logical" >
   <v type="logical" >  F  F  F </v>
   <v type="logical" >  F  F  F </v>
   <v type="logical" >  F  F  F </v>
   <v type="logical" >  F  F  F </v>
   <v type="logical" >  T  T  T </v>
   <v type="logical" >  T  T  T </v>
   <v type="logical" >  T  T  T </v>
   <v type="logical" >  T  T  T </v>
   <v type="logical" >  T  T  T </v>
   <v type="logical" >  T  T  T </v>
   <v type="logical" >  T  T  T </v>
   <v type="logical" >  T  T  T </v>
   <v type="logical" >  T  T  T </v>
   <v type="logical" >  T  T  T </v>
   <v type="logical" >  T  T  T </v>
   <v type="logical" >  T  T  T </v>
  </varray>
  <nose>
   <v>      -3.00000000       0.00000000       0.00010000       0.00010000 </v>
  </nose>
 </structure>
</modeling>
