   17   17    1    1
  0.4847811E+02  0.5557859E-09  0.5557859E-09  0.3080696E-08  0.5000000E-15
  1.000000000000000E-004
  CAR 
 unknown system                          
    161     52     96
 
  0.6250000E-01  0.6250000E-01  0.0000000E+00  0.2083333E-01
    1      -10.060849   1.000000
    2       -8.834315   1.000000
    3       -7.767477   1.000000
    4       -7.618646   1.000000
    5       -7.329056   1.000000
    6       -7.299877   1.000000
    7       -7.292999   1.000000
    8       -7.168393   1.000000
    9       -7.143178   1.000000
   10       -7.135182   1.000000
   11       -6.761805   1.000000
   12       -6.693793   1.000000
   13       -6.679449   1.000000
   14       -6.655186   1.000000
   15       -6.647614   1.000000
   16       -6.508457   1.000000
   17       -6.476364   1.000000
   18       -6.465469   1.000000
   19       -6.417521   1.000000
   20       -5.923218   1.000000
   21       -5.702298   1.000000
   22       -5.681366   1.000000
   23       -5.430867   1.000000
   24       -4.861409   1.000000
   25       -4.838637   1.000000
   26       -4.710318   1.000000
   27       -4.598067   1.000000
   28       -4.581596   1.000000
   29       -4.515357   1.000000
   30       -4.458797   1.000000
   31       -4.306172   1.000000
   32       -4.194766   1.000000
   33       -4.154882   1.000000
   34       -4.048245   1.000000
   35       -4.028863   1.000000
   36       -3.920445   1.000000
   37       -3.877385   1.000000
   38       -3.866397   1.000000
   39       -3.795954   1.000000
   40       -3.768128   1.000000
   41       -3.731543   1.000000
   42       -3.693861   1.000000
   43       -3.417116   1.000000
   44       -3.404375   1.000000
   45       -3.375891   1.000000
   46       -3.317304   1.000000
   47       -3.024956   1.000000
   48       -2.960142   1.000000
   49       -2.838031   1.000000
   50       -2.786137   1.000000
   51       -2.645878   1.000000
   52       -2.336807   1.000000
   53       -2.207391   1.000000
   54       -2.194329   1.000000
   55       -2.097755   1.000000
   56       -2.058330   1.000000
   57       -1.783132   1.000000
   58       -1.699090   1.000000
   59       -1.646637   1.000000
   60       -1.587229   1.000000
   61       -1.495067   1.000000
   62       -1.478884   1.000000
   63       -1.417800   1.000002
   64       -1.320751   1.000043
   65       -1.138701   1.003633
   66       -1.025083   1.020513
   67       -0.972973   1.031946
   68       -0.955004   1.034563
   69       -0.888664   1.022172
   70       -0.853128   0.989010
   71       -0.755165   0.746123
   72       -0.725827   0.633069
   73       -0.691339   0.489023
   74       -0.640198   0.281472
   75       -0.596623   0.137378
   76       -0.516612  -0.009008
   77       -0.468653  -0.033761
   78       -0.434362  -0.034714
   79       -0.353473  -0.018447
   80       -0.326206  -0.012991
   81       -0.248095  -0.003560
   82       -0.172710  -0.000711
   83       -0.109086  -0.000142
   84       -0.072395  -0.000051
   85       -0.050784  -0.000027
   86        0.007123  -0.000004
   87        0.351390  -0.000000
   88        0.477780  -0.000000
   89        1.296261  -0.000000
   90        1.477144  -0.000000
   91        1.699464  -0.000000
   92        1.742171  -0.000000
   93        1.753726  -0.000000
   94        1.900826  -0.000000
   95        2.496540  -0.000000
   96        2.715661  -0.000000
 
  0.0000000E+00  0.6250000E-01  0.0000000E+00  0.1041667E-01
    1      -10.060870   1.000000
    2       -8.834333   1.000000
    3       -7.767501   1.000000
    4       -7.618674   1.000000
    5       -7.324872   1.000000
    6       -7.311732   1.000000
    7       -7.285356   1.000000
    8       -7.167043   1.000000
    9       -7.149432   1.000000
   10       -7.130559   1.000000
   11       -6.761845   1.000000
   12       -6.698031   1.000000
   13       -6.673706   1.000000
   14       -6.658991   1.000000
   15       -6.644635   1.000000
   16       -6.509517   1.000000
   17       -6.481203   1.000000
   18       -6.458911   1.000000
   19       -6.418466   1.000000
   20       -5.923354   1.000000
   21       -5.700440   1.000000
   22       -5.683062   1.000000
   23       -5.431388   1.000000
   24       -4.854975   1.000000
   25       -4.845195   1.000000
   26       -4.709995   1.000000
   27       -4.595801   1.000000
   28       -4.586355   1.000000
   29       -4.512572   1.000000
   30       -4.458717   1.000000
   31       -4.305694   1.000000
   32       -4.201247   1.000000
   33       -4.149575   1.000000
   34       -4.042380   1.000000
   35       -4.034066   1.000000
   36       -3.913388   1.000000
   37       -3.885819   1.000000
   38       -3.868115   1.000000
   39       -3.788610   1.000000
   40       -3.772515   1.000000
   41       -3.735303   1.000000
   42       -3.691778   1.000000
   43       -3.415394   1.000000
   44       -3.403351   1.000000
   45       -3.377608   1.000000
   46       -3.316480   1.000000
   47       -3.038598   1.000000
   48       -2.955491   1.000000
   49       -2.850560   1.000000
   50       -2.735521   1.000000
   51       -2.674887   1.000000
   52       -2.333485   1.000000
   53       -2.204497   1.000000
   54       -2.193405   1.000000
   55       -2.099443   1.000000
   56       -2.054202   1.000000
   57       -1.768234   1.000000
   58       -1.745951   1.000000
   59       -1.607173   1.000000
   60       -1.586591   1.000000
   61       -1.501640   1.000000
   62       -1.483971   1.000000
   63       -1.397243   1.000004
   64       -1.375310   1.000008
   65       -1.116806   1.005430
   66       -1.038826   1.017494
   67       -0.965772   1.033154
   68       -0.930052   1.035139
   69       -0.903346   1.029347
   70       -0.804532   0.897806
   71       -0.796893   0.878117
   72       -0.710709   0.570710
   73       -0.704983   0.546676
   74       -0.636107   0.266288
   75       -0.585426   0.107441
   76       -0.520073  -0.005715
   77       -0.495557  -0.024264
   78       -0.424662  -0.033537
   79       -0.368411  -0.021794
   80       -0.293754  -0.007971
   81       -0.257820  -0.004274
   82       -0.181143  -0.000866
   83       -0.103699  -0.000122
   84       -0.090735  -0.000085
   85       -0.052127  -0.000028
   86        0.011738  -0.000004
   87        0.385248  -0.000000
   88        0.451444  -0.000000
   89        1.295871  -0.000000
   90        1.481398  -0.000000
   91        1.708930  -0.000000
   92        1.709289  -0.000000
   93        1.817736  -0.000000
   94        1.852838  -0.000000
   95        2.542508  -0.000000
   96        2.688873  -0.000000
 
  0.1875000E+00  0.6250000E-01  0.0000000E+00  0.2083333E-01
    1       -9.856684   1.000000
    2       -8.634813   1.000000
    3       -7.562956   1.000000
    4       -7.424684   1.000000
    5       -7.307009   1.000000
    6       -7.226947   1.000000
    7       -7.114970   1.000000
    8       -7.080949   1.000000
    9       -7.028699   1.000000
   10       -6.962497   1.000000
   11       -6.675411   1.000000
   12       -6.610261   1.000000
   13       -6.573596   1.000000
   14       -6.569840   1.000000
   15       -6.524727   1.000000
   16       -6.392078   1.000000
   17       -6.358135   1.000000
   18       -6.291687   1.000000
   19       -6.258237   1.000000
   20       -5.877822   1.000000
   21       -5.645538   1.000000
   22       -5.613212   1.000000
   23       -5.383562   1.000000
   24       -4.892649   1.000000
   25       -4.818237   1.000000
   26       -4.749974   1.000000
   27       -4.586329   1.000000
   28       -4.528695   1.000000
   29       -4.483733   1.000000
   30       -4.434222   1.000000
   31       -4.409025   1.000000
   32       -4.301014   1.000000
   33       -4.067059   1.000000
   34       -4.013464   1.000000
   35       -4.010629   1.000000
   36       -3.949721   1.000000
   37       -3.898408   1.000000
   38       -3.850077   1.000000
   39       -3.794955   1.000000
   40       -3.749711   1.000000
   41       -3.739118   1.000000
   42       -3.615928   1.000000
   43       -3.578223   1.000000
   44       -3.548341   1.000000
   45       -3.509472   1.000000
   46       -3.443802   1.000000
   47       -3.199249   1.000000
   48       -3.145336   1.000000
   49       -2.906241   1.000000
   50       -2.846595   1.000000
   51       -2.645075   1.000000
   52       -2.600486   1.000000
   53       -2.349151   1.000000
   54       -2.308347   1.000000
   55       -2.230020   1.000000
   56       -2.099256   1.000000
   57       -1.992210   1.000000
   58       -1.863262   1.000000
   59       -1.815360   1.000000
   60       -1.772496   1.000000
   61       -1.706935   1.000000
   62       -1.683728   1.000000
   63       -1.649411   1.000000
   64       -1.568541   1.000000
   65       -1.518743   1.000000
   66       -1.416096   1.000002
   67       -1.346465   1.000020
   68       -1.166535   1.002089
   69       -1.100994   1.007121
   70       -1.024275   1.020696
   71       -0.973241   1.031898
   72       -0.914720   1.032823
   73       -0.879111   1.015628
   74       -0.848059   0.982146
   75       -0.771646   0.802925
   76       -0.754948   0.745339
   77       -0.712143   0.576698
   78       -0.660045   0.358864
   79       -0.598029   0.141355
   80       -0.534195   0.010287
   81       -0.476556  -0.031953
   82       -0.442964  -0.035324
   83       -0.365870  -0.021213
   84       -0.274624  -0.005780
   85       -0.215715  -0.001858
   86        0.277997  -0.000000
   87        0.313074  -0.000000
   88        0.585309  -0.000000
   89        0.918975  -0.000000
   90        1.078897  -0.000000
   91        1.367369  -0.000000
   92        1.599408  -0.000000
   93        2.258027  -0.000000
   94        2.524590  -0.000000
   95        2.770656  -0.000000
   96        3.143233  -0.000000
 
  0.1250000E+00  0.1875000E+00  0.0000000E+00  0.2083333E-01
    1       -9.856787   1.000000
    2       -8.634899   1.000000
    3       -7.563062   1.000000
    4       -7.424785   1.000000
    5       -7.306600   1.000000
    6       -7.228927   1.000000
    7       -7.113702   1.000000
    8       -7.080958   1.000000
    9       -7.031157   1.000000
   10       -6.961560   1.000000
   11       -6.675261   1.000000
   12       -6.612888   1.000000
   13       -6.579533   1.000000
   14       -6.562016   1.000000
   15       -6.523070   1.000000
   16       -6.391499   1.000000
   17       -6.359487   1.000000
   18       -6.294288   1.000000
   19       -6.253391   1.000000
   20       -5.878801   1.000000
   21       -5.642340   1.000000
   22       -5.615583   1.000000
   23       -5.386088   1.000000
   24       -4.883974   1.000000
   25       -4.830746   1.000000
   26       -4.748145   1.000000
   27       -4.585842   1.000000
   28       -4.520845   1.000000
   29       -4.488049   1.000000
   30       -4.442903   1.000000
   31       -4.396742   1.000000
   32       -4.311515   1.000000
   33       -4.066565   1.000000
   34       -4.010758   1.000000
   35       -4.005899   1.000000
   36       -3.951692   1.000000
   37       -3.889430   1.000000
   38       -3.850023   1.000000
   39       -3.813105   1.000000
   40       -3.749343   1.000000
   41       -3.741778   1.000000
   42       -3.602568   1.000000
   43       -3.579918   1.000000
   44       -3.543819   1.000000
   45       -3.514131   1.000000
   46       -3.450262   1.000000
   47       -3.227343   1.000000
   48       -3.124785   1.000000
   49       -2.895068   1.000000
   50       -2.822540   1.000000
   51       -2.637542   1.000000
   52       -2.610207   1.000000
   53       -2.346539   1.000000
   54       -2.322500   1.000000
   55       -2.211835   1.000000
   56       -2.108169   1.000000
   57       -2.003356   1.000000
   58       -1.843684   1.000000
   59       -1.804768   1.000000
   60       -1.782205   1.000000
   61       -1.739720   1.000000
   62       -1.703936   1.000000
   63       -1.620115   1.000000
   64       -1.569891   1.000000
   65       -1.500489   1.000000
   66       -1.420162   1.000002
   67       -1.342718   1.000022
   68       -1.175462   1.001732
   69       -1.078929   1.010110
   70       -1.029495   1.019524
   71       -0.959556   1.034033
   72       -0.942720   1.035403
   73       -0.878500   1.015155
   74       -0.834279   0.960477
   75       -0.795801   0.875185
   76       -0.732063   0.658136
   77       -0.721918   0.617140
   78       -0.659982   0.358612
   79       -0.623417   0.221188
   80       -0.540638   0.019033
   81       -0.480493  -0.030769
   82       -0.445638  -0.035416
   83       -0.368472  -0.021808
   84       -0.265665  -0.004932
   85       -0.213793  -0.001784
   86        0.283327  -0.000000
   87        0.317140  -0.000000
   88        0.592121  -0.000000
   89        0.919319  -0.000000
   90        1.084991  -0.000000
   91        1.364787  -0.000000
   92        1.603653  -0.000000
   93        2.254202  -0.000000
   94        2.520787  -0.000000
   95        2.778003  -0.000000
   96        3.154233  -0.000000
 
 -0.6250000E-01  0.1250000E+00  0.0000000E+00  0.2083333E-01
    1       -9.856854   1.000000
    2       -8.634963   1.000000
    3       -7.563146   1.000000
    4       -7.424750   1.000000
    5       -7.307182   1.000000
    6       -7.229659   1.000000
    7       -7.112345   1.000000
    8       -7.082147   1.000000
    9       -7.032121   1.000000
   10       -6.960490   1.000000
   11       -6.675517   1.000000
   12       -6.613959   1.000000
   13       -6.579897   1.000000
   14       -6.563670   1.000000
   15       -6.518253   1.000000
   16       -6.395309   1.000000
   17       -6.357788   1.000000
   18       -6.290524   1.000000
   19       -6.255207   1.000000
   20       -5.879411   1.000000
   21       -5.635213   1.000000
   22       -5.622157   1.000000
   23       -5.387839   1.000000
   24       -4.878775   1.000000
   25       -4.835964   1.000000
   26       -4.749190   1.000000
   27       -4.589328   1.000000
   28       -4.515622   1.000000
   29       -4.484842   1.000000
   30       -4.445886   1.000000
   31       -4.396876   1.000000
   32       -4.314386   1.000000
   33       -4.059758   1.000000
   34       -4.009301   1.000000
   35       -4.004311   1.000000
   36       -3.967759   1.000000
   37       -3.885979   1.000000
   38       -3.831375   1.000000
   39       -3.811789   1.000000
   40       -3.763966   1.000000
   41       -3.746208   1.000000
   42       -3.598091   1.000000
   43       -3.581896   1.000000
   44       -3.546849   1.000000
   45       -3.501625   1.000000
   46       -3.459941   1.000000
   47       -3.245611   1.000000
   48       -3.114442   1.000000
   49       -2.892251   1.000000
   50       -2.796415   1.000000
   51       -2.637114   1.000000
   52       -2.617812   1.000000
   53       -2.360249   1.000000
   54       -2.306293   1.000000
   55       -2.207126   1.000000
   56       -2.115895   1.000000
   57       -2.006062   1.000000
   58       -1.843607   1.000000
   59       -1.809722   1.000000
   60       -1.767618   1.000000
   61       -1.743866   1.000000
   62       -1.678568   1.000000
   63       -1.650809   1.000000
   64       -1.561492   1.000000
   65       -1.510992   1.000000
   66       -1.442277   1.000001
   67       -1.331217   1.000032
   68       -1.177613   1.001654
   69       -1.081581   1.009710
   70       -1.006995   1.024672
   71       -0.959935   1.033984
   72       -0.933499   1.035342
   73       -0.897525   1.026892
   74       -0.847266   0.981021
   75       -0.797439   0.879573
   76       -0.746537   0.714279
   77       -0.692428   0.493631
   78       -0.668255   0.392333
   79       -0.629526   0.242506
   80       -0.512851  -0.012323
   81       -0.460601  -0.034896
   82       -0.432265  -0.034499
   83       -0.354598  -0.018692
   84       -0.317578  -0.011492
   85       -0.238049  -0.002929
   86        0.269255  -0.000000
   87        0.338211  -0.000000
   88        0.591564  -0.000000
   89        0.919150  -0.000000
   90        1.093659  -0.000000
   91        1.368908  -0.000000
   92        1.603630  -0.000000
   93        2.249019  -0.000000
   94        2.532055  -0.000000
   95        2.775970  -0.000000
   96        3.144748  -0.000000
 
  0.3125000E+00  0.6250000E-01  0.0000000E+00  0.2083333E-01
    1       -9.402799   1.000000
    2       -8.204192   1.000000
    3       -7.406787   1.000000
    4       -7.130501   1.000000
    5       -7.017411   1.000000
    6       -6.998510   1.000000
    7       -6.955631   1.000000
    8       -6.778492   1.000000
    9       -6.732181   1.000000
   10       -6.653071   1.000000
   11       -6.576091   1.000000
   12       -6.447046   1.000000
   13       -6.347466   1.000000
   14       -6.315511   1.000000
   15       -6.232644   1.000000
   16       -6.193114   1.000000
   17       -6.047407   1.000000
   18       -5.961251   1.000000
   19       -5.903216   1.000000
   20       -5.710023   1.000000
   21       -5.519810   1.000000
   22       -5.468174   1.000000
   23       -5.290725   1.000000
   24       -4.985496   1.000000
   25       -4.913867   1.000000
   26       -4.801704   1.000000
   27       -4.726468   1.000000
   28       -4.661809   1.000000
   29       -4.560373   1.000000
   30       -4.383458   1.000000
   31       -4.350843   1.000000
   32       -4.287356   1.000000
   33       -4.208662   1.000000
   34       -4.166219   1.000000
   35       -4.111533   1.000000
   36       -3.989357   1.000000
   37       -3.924650   1.000000
   38       -3.902104   1.000000
   39       -3.848700   1.000000
   40       -3.770614   1.000000
   41       -3.745252   1.000000
   42       -3.689237   1.000000
   43       -3.668541   1.000000
   44       -3.612802   1.000000
   45       -3.543444   1.000000
   46       -3.477070   1.000000
   47       -3.371291   1.000000
   48       -3.229074   1.000000
   49       -3.196341   1.000000
   50       -2.997719   1.000000
   51       -2.913225   1.000000
   52       -2.793417   1.000000
   53       -2.694094   1.000000
   54       -2.656083   1.000000
   55       -2.611773   1.000000
   56       -2.525194   1.000000
   57       -2.518444   1.000000
   58       -2.486522   1.000000
   59       -2.409062   1.000000
   60       -2.356660   1.000000
   61       -2.238059   1.000000
   62       -2.079076   1.000000
   63       -2.037783   1.000000
   64       -1.955034   1.000000
   65       -1.829787   1.000000
   66       -1.803928   1.000000
   67       -1.750010   1.000000
   68       -1.563665   1.000000
   69       -1.495166   1.000000
   70       -1.428763   1.000001
   71       -1.333822   1.000029
   72       -1.299639   1.000080
   73       -1.253356   1.000278
   74       -1.193503   1.001169
   75       -1.111380   1.005970
   76       -1.054164   1.014387
   77       -0.964795   1.033303
   78       -0.920273   1.033949
   79       -0.871876   1.009575
   80       -0.757755   0.755412
   81       -0.717636   0.599520
   82       -0.619804   0.208943
   83       -0.584429   0.104927
   84       -0.524076  -0.001604
   85       -0.259648  -0.004421
   86       -0.017264  -0.000009
   87        0.387350  -0.000000
   88        0.662940  -0.000000
   89        0.990114  -0.000000
   90        1.422353  -0.000000
   91        1.844288  -0.000000
   92        1.953880  -0.000000
   93        2.332469  -0.000000
   94        2.504728  -0.000000
   95        3.200678  -0.000000
   96        3.614771  -0.000000
 
  0.2500000E+00  0.3125000E+00  0.0000000E+00  0.2083333E-01
    1       -9.402964   1.000000
    2       -8.204318   1.000000
    3       -7.406810   1.000000
    4       -7.130695   1.000000
    5       -7.016935   1.000000
    6       -6.998556   1.000000
    7       -6.957697   1.000000
    8       -6.777820   1.000000
    9       -6.731082   1.000000
   10       -6.658410   1.000000
   11       -6.573501   1.000000
   12       -6.448214   1.000000
   13       -6.350321   1.000000
   14       -6.311921   1.000000
   15       -6.235401   1.000000
   16       -6.187243   1.000000
   17       -6.050263   1.000000
   18       -5.961540   1.000000
   19       -5.895968   1.000000
   20       -5.713601   1.000000
   21       -5.522239   1.000000
   22       -5.465276   1.000000
   23       -5.293100   1.000000
   24       -4.984879   1.000000
   25       -4.913033   1.000000
   26       -4.810191   1.000000
   27       -4.723954   1.000000
   28       -4.657128   1.000000
   29       -4.566867   1.000000
   30       -4.372795   1.000000
   31       -4.367951   1.000000
   32       -4.278257   1.000000
   33       -4.198716   1.000000
   34       -4.172718   1.000000
   35       -4.118388   1.000000
   36       -3.991204   1.000000
   37       -3.941155   1.000000
   38       -3.901134   1.000000
   39       -3.837714   1.000000
   40       -3.788431   1.000000
   41       -3.746233   1.000000
   42       -3.676784   1.000000
   43       -3.646315   1.000000
   44       -3.598838   1.000000
   45       -3.546672   1.000000
   46       -3.480229   1.000000
   47       -3.407192   1.000000
   48       -3.227240   1.000000
   49       -3.163789   1.000000
   50       -2.987137   1.000000
   51       -2.906748   1.000000
   52       -2.796433   1.000000
   53       -2.716194   1.000000
   54       -2.651835   1.000000
   55       -2.594831   1.000000
   56       -2.545344   1.000000
   57       -2.507816   1.000000
   58       -2.489881   1.000000
   59       -2.393138   1.000000
   60       -2.353850   1.000000
   61       -2.220463   1.000000
   62       -2.100068   1.000000
   63       -2.014673   1.000000
   64       -1.964918   1.000000
   65       -1.842417   1.000000
   66       -1.784748   1.000000
   67       -1.746137   1.000000
   68       -1.593135   1.000000
   69       -1.470165   1.000000
   70       -1.446717   1.000001
   71       -1.400198   1.000004
   72       -1.323474   1.000040
   73       -1.238116   1.000408
   74       -1.173668   1.001799
   75       -1.076246   1.010526
   76       -1.064337   1.012513
   77       -0.965928   1.033130
   78       -0.923394   1.034433
   79       -0.868941   1.006833
   80       -0.755524   0.747416
   81       -0.694882   0.504014
   82       -0.624631   0.225364
   83       -0.606309   0.165754
   84       -0.522647  -0.003109
   85       -0.266954  -0.005047
   86       -0.000323  -0.000005
   87        0.383240  -0.000000
   88        0.668050  -0.000000
   89        0.987431  -0.000000
   90        1.421653  -0.000000
   91        1.843734  -0.000000
   92        1.965020  -0.000000
   93        2.338428  -0.000000
   94        2.496595  -0.000000
   95        3.201226  -0.000000
   96        3.605151  -0.000000
 
 -0.6250000E-01  0.2500000E+00  0.0000000E+00  0.2083333E-01
    1       -9.403344   1.000000
    2       -8.204787   1.000000
    3       -7.407271   1.000000
    4       -7.133941   1.000000
    5       -7.014543   1.000000
    6       -7.001232   1.000000
    7       -6.958263   1.000000
    8       -6.779866   1.000000
    9       -6.734749   1.000000
   10       -6.652219   1.000000
   11       -6.574473   1.000000
   12       -6.450327   1.000000
   13       -6.348989   1.000000
   14       -6.319124   1.000000
   15       -6.225399   1.000000
   16       -6.187315   1.000000
   17       -6.042904   1.000000
   18       -5.960749   1.000000
   19       -5.895672   1.000000
   20       -5.719160   1.000000
   21       -5.501733   1.000000
   22       -5.483149   1.000000
   23       -5.302879   1.000000
   24       -4.985581   1.000000
   25       -4.916475   1.000000
   26       -4.813216   1.000000
   27       -4.723635   1.000000
   28       -4.638152   1.000000
   29       -4.592597   1.000000
   30       -4.389278   1.000000
   31       -4.361040   1.000000
   32       -4.279299   1.000000
   33       -4.183113   1.000000
   34       -4.161965   1.000000
   35       -4.120097   1.000000
   36       -3.970719   1.000000
   37       -3.943162   1.000000
   38       -3.899094   1.000000
   39       -3.817440   1.000000
   40       -3.806952   1.000000
   41       -3.740913   1.000000
   42       -3.688352   1.000000
   43       -3.657545   1.000000
   44       -3.630601   1.000000
   45       -3.566047   1.000000
   46       -3.492172   1.000000
   47       -3.384313   1.000000
   48       -3.223610   1.000000
   49       -3.084053   1.000000
   50       -2.970274   1.000000
   51       -2.916186   1.000000
   52       -2.799985   1.000000
   53       -2.712663   1.000000
   54       -2.670490   1.000000
   55       -2.618275   1.000000
   56       -2.540742   1.000000
   57       -2.511395   1.000000
   58       -2.475861   1.000000
   59       -2.390973   1.000000
   60       -2.325019   1.000000
   61       -2.233682   1.000000
   62       -2.104585   1.000000
   63       -2.016050   1.000000
   64       -1.955157   1.000000
   65       -1.856628   1.000000
   66       -1.787140   1.000000
   67       -1.698359   1.000000
   68       -1.586217   1.000000
   69       -1.532914   1.000000
   70       -1.452544   1.000001
   71       -1.409080   1.000003
   72       -1.318677   1.000046
   73       -1.223218   1.000587
   74       -1.184282   1.001433
   75       -1.105058   1.006652
   76       -1.067110   1.012030
   77       -0.984427   1.029709
   78       -0.924819   1.034621
   79       -0.821159   0.935568
   80       -0.774113   0.810930
   81       -0.702936   0.538052
   82       -0.680428   0.442999
   83       -0.533518   0.009423
   84       -0.421501  -0.033061
   85       -0.374721  -0.023248
   86       -0.017653  -0.000009
   87        0.384192  -0.000000
   88        0.673550  -0.000000
   89        0.988352  -0.000000
   90        1.476021  -0.000000
   91        1.837375  -0.000000
   92        1.956880  -0.000000
   93        2.333817  -0.000000
   94        2.502110  -0.000000
   95        3.203549  -0.000000
   96        3.574768  -0.000000
 
  0.4375000E+00  0.6250000E-01  0.0000000E+00  0.2083333E-01
    1       -8.763514   1.000000
    2       -7.774137   1.000000
    3       -7.653206   1.000000
    4       -7.051688   1.000000
    5       -6.686261   1.000000
    6       -6.626989   1.000000
    7       -6.543549   1.000000
    8       -6.453094   1.000000
    9       -6.423140   1.000000
   10       -6.389406   1.000000
   11       -6.351968   1.000000
   12       -6.188070   1.000000
   13       -6.068860   1.000000
   14       -6.008167   1.000000
   15       -5.926972   1.000000
   16       -5.888277   1.000000
   17       -5.787775   1.000000
   18       -5.587412   1.000000
   19       -5.562514   1.000000
   20       -5.404606   1.000000
   21       -5.302251   1.000000
   22       -5.255335   1.000000
   23       -5.215695   1.000000
   24       -5.094308   1.000000
   25       -5.053797   1.000000
   26       -4.950657   1.000000
   27       -4.879860   1.000000
   28       -4.817448   1.000000
   29       -4.619794   1.000000
   30       -4.586829   1.000000
   31       -4.519189   1.000000
   32       -4.492483   1.000000
   33       -4.374680   1.000000
   34       -4.337588   1.000000
   35       -4.271404   1.000000
   36       -4.179794   1.000000
   37       -4.111023   1.000000
   38       -4.027865   1.000000
   39       -3.980214   1.000000
   40       -3.882769   1.000000
   41       -3.799910   1.000000
   42       -3.741134   1.000000
   43       -3.678921   1.000000
   44       -3.640441   1.000000
   45       -3.554478   1.000000
   46       -3.515076   1.000000
   47       -3.496582   1.000000
   48       -3.410421   1.000000
   49       -3.367102   1.000000
   50       -3.327413   1.000000
   51       -3.275863   1.000000
   52       -3.196937   1.000000
   53       -3.149337   1.000000
   54       -3.112408   1.000000
   55       -2.940502   1.000000
   56       -2.863354   1.000000
   57       -2.816310   1.000000
   58       -2.756592   1.000000
   59       -2.701904   1.000000
   60       -2.675584   1.000000
   61       -2.425595   1.000000
   62       -2.405734   1.000000
   63       -2.305835   1.000000
   64       -2.222912   1.000000
   65       -2.147859   1.000000
   66       -2.116641   1.000000
   67       -2.064615   1.000000
   68       -1.957287   1.000000
   69       -1.869638   1.000000
   70       -1.804206   1.000000
   71       -1.750649   1.000000
   72       -1.708583   1.000000
   73       -1.604316   1.000000
   74       -1.477013   1.000000
   75       -1.394896   1.000004
   76       -1.352269   1.000017
   77       -1.142587   1.003373
   78       -1.054509   1.014321
   79       -0.998360   1.026654
   80       -0.828673   0.950353
   81       -0.742885   0.700411
   82       -0.628065   0.237337
   83       -0.572995   0.077892
   84       -0.508689  -0.015679
   85       -0.292378  -0.007796
   86       -0.194184  -0.001164
   87        0.680905  -0.000000
   88        0.833251  -0.000000
   89        1.101833  -0.000000
   90        1.566780  -0.000000
   91        1.952961  -0.000000
   92        2.101285  -0.000000
   93        2.443675  -0.000000
   94        2.707594  -0.000000
   95        3.496362  -0.000000
   96        3.801676  -0.000000
 
  0.3750000E+00  0.4375000E+00  0.0000000E+00  0.2083333E-01
    1       -8.763705   1.000000
    2       -7.774026   1.000000
    3       -7.653266   1.000000
    4       -7.052094   1.000000
    5       -6.686599   1.000000
    6       -6.630208   1.000000
    7       -6.534545   1.000000
    8       -6.452414   1.000000
    9       -6.430353   1.000000
   10       -6.392380   1.000000
   11       -6.351018   1.000000
   12       -6.187896   1.000000
   13       -6.070661   1.000000
   14       -6.004174   1.000000
   15       -5.927136   1.000000
   16       -5.888128   1.000000
   17       -5.785899   1.000000
   18       -5.585495   1.000000
   19       -5.562933   1.000000
   20       -5.407012   1.000000