  16  16   0   0
  0.5150799E+02  0.5557859E-09  0.5557859E-09  0.3080696E-08  0.5000000E-15
  1.000000000000000E-004
  CAR 
 unknown system                          
      6.51588816    -12.18507859  301     -0.79497114      1.00000000
    -12.185  0.0000E+00  0.0000E+00
    -12.123  0.0000E+00  0.0000E+00
    -12.060  0.0000E+00  0.0000E+00
    -11.998  0.0000E+00  0.0000E+00
    -11.936  0.0000E+00  0.0000E+00
    -11.873  0.0000E+00  0.0000E+00
    -11.811 -0.4537E-28 -0.2828E-29
    -11.749 -0.6270E-26 -0.3937E-27
    -11.686 -0.7141E-24 -0.4491E-25
    -11.624 -0.6685E-22 -0.4212E-23
    -11.562 -0.5142E-20 -0.3248E-21
    -11.499 -0.3250E-18 -0.2058E-19
    -11.437 -0.1687E-16 -0.1072E-17
    -11.375 -0.7194E-15 -0.4592E-16
    -11.312 -0.2440E-13 -0.1567E-14
    -11.250 -0.6982E-12 -0.4509E-13
    -11.188 -0.1638E-10 -0.1066E-11
    -11.125 -0.3148E-09 -0.2069E-10
    -11.063 -0.4950E-08 -0.3292E-09
    -11.001 -0.6363E-07 -0.4296E-08
    -10.938 -0.6675E-06 -0.4591E-07
    -10.876 -0.5703E-05 -0.4014E-06
    -10.814 -0.3956E-04 -0.2867E-05
    -10.751 -0.2218E-03 -0.1670E-04
    -10.689 -0.9989E-03 -0.7897E-04
    -10.627 -0.3572E-02 -0.3016E-03
    -10.564 -0.9943E-02 -0.9214E-03
    -10.502 -0.2065E-01 -0.2208E-02
    -10.440 -0.2833E-01 -0.3974E-02
    -10.377 -0.1120E-01 -0.4672E-02
    -10.315  0.6102E-01 -0.8689E-03
    -10.253  0.2031E+00  0.1179E-01
    -10.190  0.3942E+00  0.3636E-01
    -10.128  0.5907E+00  0.7319E-01
    -10.066  0.7583E+00  0.1205E+00
    -10.003  0.8783E+00  0.1752E+00
     -9.941  0.9330E+00  0.2334E+00
     -9.879  0.9103E+00  0.2901E+00
     -9.816  0.8300E+00  0.3419E+00
     -9.754  0.7541E+00  0.3889E+00
     -9.692  0.7581E+00  0.4361E+00
     -9.629  0.8694E+00  0.4903E+00
     -9.567  0.1020E+01  0.5539E+00
     -9.505  0.1094E+01  0.6221E+00
     -9.442  0.1039E+01  0.6869E+00
     -9.380  0.9148E+00  0.7439E+00
     -9.318  0.8041E+00  0.7940E+00
     -9.255  0.7412E+00  0.8402E+00
     -9.193  0.7346E+00  0.8860E+00
     -9.131  0.8223E+00  0.9373E+00
     -9.068  0.1040E+01  0.1002E+01
     -9.006  0.1340E+01  0.1086E+01
     -8.944  0.1601E+01  0.1185E+01
     -8.881  0.1746E+01  0.1294E+01
     -8.819  0.1805E+01  0.1407E+01
     -8.757  0.1843E+01  0.1522E+01
     -8.694  0.1854E+01  0.1637E+01
     -8.632  0.1799E+01  0.1749E+01
     -8.570  0.1715E+01  0.1856E+01
     -8.507  0.1735E+01  0.1964E+01
     -8.445  0.1966E+01  0.2087E+01
     -8.383  0.2354E+01  0.2234E+01
     -8.320  0.2682E+01  0.2401E+01
     -8.258  0.2742E+01  0.2572E+01
     -8.196  0.2537E+01  0.2730E+01
     -8.133  0.2264E+01  0.2871E+01
     -8.071  0.2098E+01  0.3002E+01
     -8.009  0.2066E+01  0.3131E+01
     -7.946  0.2180E+01  0.3267E+01
     -7.884  0.2568E+01  0.3427E+01
     -7.822  0.3354E+01  0.3636E+01
     -7.759  0.4398E+01  0.3910E+01
     -7.697  0.5312E+01  0.4241E+01
     -7.635  0.5859E+01  0.4606E+01
     -7.572  0.6242E+01  0.4995E+01
     -7.510  0.6890E+01  0.5425E+01
     -7.448  0.8007E+01  0.5924E+01
     -7.385  0.9486E+01  0.6515E+01
     -7.323  0.1111E+02  0.7208E+01
     -7.260  0.1263E+02  0.7995E+01
     -7.198  0.1370E+02  0.8849E+01
     -7.136  0.1400E+02  0.9722E+01
     -7.073  0.1349E+02  0.1056E+02
     -7.011  0.1258E+02  0.1135E+02
     -6.949  0.1200E+02  0.1209E+02
     -6.886  0.1247E+02  0.1287E+02
     -6.824  0.1424E+02  0.1376E+02
     -6.762  0.1695E+02  0.1482E+02
     -6.699  0.1989E+02  0.1606E+02
     -6.637  0.2241E+02  0.1745E+02
     -6.575  0.2416E+02  0.1896E+02
     -6.512  0.2495E+02  0.2051E+02
     -6.450  0.2470E+02  0.2205E+02
     -6.388  0.2367E+02  0.2353E+02
     -6.325  0.2253E+02  0.2493E+02
     -6.263  0.2186E+02  0.2630E+02
     -6.201  0.2160E+02  0.2764E+02
     -6.138  0.2108E+02  0.2896E+02
     -6.076  0.1975E+02  0.3019E+02
     -6.014  0.1768E+02  0.3129E+02
     -5.951  0.1563E+02  0.3226E+02
     -5.889  0.1439E+02  0.3316E+02
     -5.827  0.1440E+02  0.3406E+02
     -5.764  0.1556E+02  0.3503E+02
     -5.702  0.1738E+02  0.3611E+02
     -5.640  0.1918E+02  0.3731E+02
     -5.577  0.2038E+02  0.3858E+02
     -5.515  0.2068E+02  0.3987E+02
     -5.453  0.2018E+02  0.4113E+02
     -5.390  0.1930E+02  0.4233E+02
     -5.328  0.1859E+02  0.4349E+02
     -5.266  0.1849E+02  0.4464E+02
     -5.203  0.1906E+02  0.4583E+02
     -5.141  0.2001E+02  0.4708E+02
     -5.079  0.2091E+02  0.4838E+02
     -5.016  0.2144E+02  0.4972E+02
     -4.954  0.2150E+02  0.5106E+02
     -4.892  0.2125E+02  0.5238E+02
     -4.829  0.2110E+02  0.5370E+02
     -4.767  0.2154E+02  0.5504E+02
     -4.705  0.2284E+02  0.5646E+02
     -4.642  0.2486E+02  0.5801E+02
     -4.580  0.2701E+02  0.5970E+02
     -4.518  0.2841E+02  0.6147E+02
     -4.455  0.2846E+02  0.6324E+02
     -4.393  0.2743E+02  0.6495E+02
     -4.331  0.2652E+02  0.6660E+02
     -4.268  0.2693E+02  0.6828E+02
     -4.206  0.2878E+02  0.7008E+02
     -4.144  0.3108E+02  0.7201E+02
     -4.081  0.3270E+02  0.7405E+02
     -4.019  0.3335E+02  0.7613E+02
     -3.957  0.3353E+02  0.7822E+02
     -3.894  0.3386E+02  0.8033E+02
     -3.832  0.3441E+02  0.8248E+02
     -3.770  0.3490E+02  0.8465E+02
     -3.707  0.3500E+02  0.8683E+02
     -3.645  0.3446E+02  0.8898E+02
     -3.583  0.3297E+02  0.9104E+02
     -3.520  0.3031E+02  0.9293E+02
     -3.458  0.2671E+02  0.9459E+02
     -3.396  0.2289E+02  0.9602E+02
     -3.333  0.1958E+02  0.9724E+02
     -3.271  0.1720E+02  0.9831E+02
     -3.209  0.1600E+02  0.9931E+02
     -3.146  0.1635E+02  0.1003E+03
     -3.084  0.1846E+02  0.1015E+03
     -3.022  0.2192E+02  0.1028E+03
     -2.959  0.2562E+02  0.1044E+03
     -2.897  0.2829E+02  0.1062E+03
     -2.835  0.2912E+02  0.1080E+03
     -2.772  0.2806E+02  0.1098E+03
     -2.710  0.2578E+02  0.1114E+03
     -2.648  0.2338E+02  0.1128E+03
     -2.585  0.2181E+02  0.1142E+03
     -2.523  0.2133E+02  0.1155E+03
     -2.461  0.2161E+02  0.1169E+03
     -2.398  0.2217E+02  0.1183E+03
     -2.336  0.2276E+02  0.1197E+03
     -2.274  0.2338E+02  0.1211E+03
     -2.211  0.2415E+02  0.1226E+03
     -2.149  0.2508E+02  0.1242E+03
     -2.087  0.2605E+02  0.1258E+03
     -2.024  0.2698E+02  0.1275E+03
     -1.962  0.2783E+02  0.1292E+03
     -1.900  0.2838E+02  0.1310E+03
     -1.837  0.2820E+02  0.1328E+03
     -1.775  0.2711E+02  0.1345E+03
     -1.713  0.2548E+02  0.1360E+03
     -1.650  0.2386E+02  0.1375E+03
     -1.588  0.2253E+02  0.1389E+03
     -1.526  0.2159E+02  0.1403E+03
     -1.463  0.2120E+02  0.1416E+03
     -1.401  0.2158E+02  0.1429E+03
     -1.339  0.2268E+02  0.1444E+03
     -1.276  0.2408E+02  0.1459E+03
     -1.214  0.2550E+02  0.1475E+03
     -1.152  0.2702E+02  0.1491E+03
     -1.089  0.2874E+02  0.1509E+03
     -1.027  0.3038E+02  0.1528E+03
     -0.964  0.3143E+02  0.1548E+03
     -0.902  0.3159E+02  0.1568E+03
     -0.840  0.3084E+02  0.1587E+03
     -0.777  0.2932E+02  0.1605E+03
     -0.715  0.2732E+02  0.1622E+03
     -0.653  0.2503E+02  0.1638E+03
     -0.590  0.2245E+02  0.1652E+03
     -0.528  0.1970E+02  0.1664E+03
     -0.466  0.1728E+02  0.1675E+03
     -0.403  0.1558E+02  0.1684E+03
     -0.341  0.1429E+02  0.1693E+03
     -0.279  0.1265E+02  0.1701E+03
     -0.216  0.1038E+02  0.1708E+03
     -0.154  0.7970E+01  0.1713E+03
     -0.092  0.6190E+01  0.1716E+03
     -0.029  0.5332E+01  0.1720E+03
      0.033  0.5080E+01  0.1723E+03
      0.095  0.4946E+01  0.1726E+03
      0.158  0.4778E+01  0.1729E+03
      0.220  0.4774E+01  0.1732E+03
      0.282  0.5030E+01  0.1735E+03
      0.345  0.5241E+01  0.1738E+03
      0.407  0.4968E+01  0.1742E+03
      0.469  0.4148E+01  0.1744E+03
      0.532  0.3269E+01  0.1746E+03
      0.594  0.3012E+01  0.1748E+03
      0.656  0.3699E+01  0.1750E+03
      0.719  0.5068E+01  0.1753E+03
      0.781  0.6490E+01  0.1758E+03
      0.843  0.7375E+01  0.1762E+03
      0.906  0.7451E+01  0.1767E+03
      0.968  0.6810E+01  0.1771E+03
      1.030  0.5782E+01  0.1775E+03
      1.093  0.4741E+01  0.1778E+03
      1.155  0.3957E+01  0.1780E+03
      1.217  0.3549E+01  0.1782E+03
      1.280  0.3505E+01  0.1784E+03
      1.342  0.3734E+01  0.1787E+03
      1.404  0.4109E+01  0.1789E+03
      1.467  0.4492E+01  0.1792E+03
      1.529  0.4780E+01  0.1795E+03
      1.591  0.4987E+01  0.1798E+03
      1.654  0.5255E+01  0.1802E+03
      1.716  0.5677E+01  0.1805E+03
      1.778  0.6082E+01  0.1809E+03
      1.841  0.6099E+01  0.1813E+03
      1.903  0.5559E+01  0.1816E+03
      1.965  0.4779E+01  0.1819E+03
      2.028  0.4342E+01  0.1822E+03
      2.090  0.4559E+01  0.1825E+03
      2.152  0.5203E+01  0.1828E+03
      2.215  0.5752E+01  0.1831E+03
      2.277  0.5872E+01  0.1835E+03
      2.339  0.5649E+01  0.1839E+03
      2.402  0.5347E+01  0.1842E+03
      2.464  0.5032E+01  0.1845E+03
      2.526  0.4535E+01  0.1848E+03
      2.589  0.3775E+01  0.1850E+03
      2.651  0.3022E+01  0.1852E+03
      2.713  0.2761E+01  0.1854E+03
      2.776  0.3317E+01  0.1856E+03
      2.838  0.4564E+01  0.1859E+03
      2.900  0.5922E+01  0.1862E+03
      2.963  0.6683E+01  0.1867E+03
      3.025  0.6460E+01  0.1871E+03
      3.087  0.5417E+01  0.1874E+03
      3.150  0.4132E+01  0.1877E+03
      3.212  0.3219E+01  0.1879E+03
      3.274  0.2991E+01  0.1881E+03
      3.337  0.3342E+01  0.1883E+03
      3.399  0.3884E+01  0.1885E+03
      3.461  0.4234E+01  0.1888E+03
      3.524  0.4227E+01  0.1890E+03
      3.586  0.3917E+01  0.1893E+03
      3.648  0.3466E+01  0.1895E+03
      3.711  0.3111E+01  0.1897E+03
      3.773  0.3099E+01  0.1899E+03
      3.835  0.3497E+01  0.1901E+03
      3.898  0.4060E+01  0.1903E+03
      3.960  0.4373E+01  0.1906E+03
      4.022  0.4148E+01  0.1909E+03
      4.085  0.3426E+01  0.1911E+03
      4.147  0.2544E+01  0.1913E+03
      4.209  0.1901E+01  0.1914E+03
      4.272  0.1695E+01  0.1915E+03
      4.334  0.1829E+01  0.1916E+03
      4.396  0.2012E+01  0.1917E+03
      4.459  0.1952E+01  0.1918E+03
      4.521  0.1540E+01  0.1919E+03
      4.583  0.9218E+00  0.1920E+03
      4.646  0.3618E+00  0.1920E+03
      4.708  0.2948E-01  0.1920E+03
      4.770 -0.8226E-01  0.1920E+03
      4.833 -0.7596E-01  0.1920E+03
      4.895 -0.4131E-01  0.1920E+03
      4.957 -0.1642E-01  0.1920E+03
      5.020 -0.5077E-02  0.1920E+03
      5.082 -0.1253E-02  0.1920E+03
      5.144 -0.2503E-03  0.1920E+03
      5.207 -0.4075E-04  0.1920E+03
      5.269 -0.5429E-05  0.1920E+03
      5.331 -0.5934E-06  0.1920E+03
      5.394 -0.5327E-07  0.1920E+03
      5.456 -0.3931E-08  0.1920E+03
      5.519 -0.2386E-09  0.1920E+03
      5.581 -0.1191E-10  0.1920E+03
      5.643 -0.4893E-12  0.1920E+03
      5.706 -0.1633E-13  0.1920E+03
      5.768 -0.3710E-15  0.1920E+03
      5.830  0.0000E+00  0.1920E+03
      5.893  0.0000E+00  0.1920E+03
      5.955  0.0000E+00  0.1920E+03
      6.017  0.0000E+00  0.1920E+03
      6.080  0.0000E+00  0.1920E+03
      6.142  0.0000E+00  0.1920E+03
      6.204  0.0000E+00  0.1920E+03
      6.267  0.0000E+00  0.1920E+03
      6.329  0.0000E+00  0.1920E+03
      6.391  0.0000E+00  0.1920E+03
      6.454  0.0000E+00  0.1920E+03
      6.516  0.0000E+00  0.1920E+03
