 vasp.5.4.4.18Apr17-6-g9f103f2a35 (build Apr 28 2017 10:53:45) complex          
  
 executed on             LinuxIFC date 2020.02.17  09:19:49
 running on   24 total cores
 distrk:  each k-point on   24 cores,    1 groups
 distr:  one band on NCORES_PER_BAND=   1 cores,   24 groups


--------------------------------------------------------------------------------------------------------


 INCAR:
 POTCAR:    PAW_PBE Au 04Oct2007                  
 POTCAR:    PAW_PBE Pt 04Feb2005                  
 POTCAR:    PAW_PBE Ir 06Sep2000                  

 ----------------------------------------------------------------------------- 
|                                                                             |
|           W    W    AA    RRRRR   N    N  II  N    N   GGGG   !!!           |
|           W    W   A  A   R    R  NN   N  II  NN   N  G    G  !!!           |
|           W    W  A    A  R    R  N N  N  II  N N  N  G       !!!           |
|           W WW W  AAAAAA  RRRRR   N  N N  II  N  N N  G  GGG   !            |
|           WW  WW  A    A  R   R   N   NN  II  N   NN  G    G                |
|           W    W  A    A  R    R  N    N  II  N    N   GGGG   !!!           |
|                                                                             |
|      For optimal performance we recommend to set                            |
|        NCORE= 4 - approx SQRT( number of cores)                             |
|      NCORE specifies how many cores store one orbital (NPAR=cpu/NCORE).     |
|      This setting can  greatly improve the performance of VASP for DFT.     |
|      The default,   NCORE=1            might be grossly inefficient         |
|      on modern multi-core architectures or massively parallel machines.     |
|      Do your own testing !!!!                                               |
|      Unfortunately you need to use the default for GW and RPA calculations. |
|      (for HF NCORE is supported but not extensively tested yet)             |
|                                                                             |
 ----------------------------------------------------------------------------- 

 POTCAR:    PAW_PBE Au 04Oct2007                  
   SHA256 =  d0044ae04e2bdce24051b198fc5c053d722a5bc6fe3c3b100514a13fc5d2db88 Au
   COPYR  = (c) Copyright 04Oct2007 Georg Kresse                                
   COPYR  = This file is part of the software VASP. Any use, copying, and all ot
   COPYR  = If you do not have a valid VASP license, you may not use, copy or di
   VRHFIN =Au: s1d10                                                            
   LEXCH  = PE                                                                  
   EATOM  =   926.0867 eV,   68.0654 Ry                                         
                                                                                
   TITEL  = PAW_PBE Au 04Oct2007                                                
   LULTRA =        F    use ultrasoft PP ?                                      
   IUNSCR =        1    unscreen: 0-lin 1-nonlin 2-no                           
   RPACOR =    2.330    partial core radius                                     
   POMASS =  196.966; ZVAL   =   11.000    mass and valenz                      
   RCORE  =    2.500    outmost cutoff radius                                   
   RWIGS  =    2.840; RWIGS  =    1.503    wigner-seitz radius (au A)           
   ENMAX  =  229.943; ENMIN  =  172.457 eV                                      
   ICORE  =        3    local potential                                         
   LCOR   =        T    correct aug charges                                     
   LPAW   =        T    paw PP                                                  
   EAUG   =  356.670                                                            
   DEXC   =    0.000                                                            
   RMAX   =    2.562    core radius for proj-oper                               
   RAUG   =    1.300    factor for augmentation sphere                          
   RDEP   =    2.598    radius for radial grids                                 
   RDEPT  =    2.193    core radius for aug-charge                              
                                                                                
   Atomic configuration                                                         
   16 entries                                                                   
     n  l   j            E        occ.                                          
     1  0  0.50    -80748.5001   2.0000                                         
     2  0  0.50    -14244.7466   2.0000                                         
     2  1  1.50    -12310.9591   6.0000                                         
     3  0  0.50     -3362.1768   2.0000                                         
     3  1  1.50     -2801.5463   6.0000                                         
     3  2  2.50     -2203.8206  10.0000                                         
     4  0  0.50      -729.8168   2.0000                                         
     4  1  1.50      -546.0527   6.0000                                         
     4  2  2.50      -325.7302  10.0000                                         
     4  3  3.50       -81.1472  14.0000                                         
     5  0  0.50      -108.3201   2.0000                                         
     5  1  1.50       -59.7479   6.0000                                         
     5  2  2.50        -6.8783  10.0000                                         
     6  0  0.50        -5.7602   1.0000                                         
     6  1  1.50        -6.8029   0.0000                                         
     5  3  2.50        -1.3606   0.0000                                         
   Description                                                                  
     l       E           TYP  RCUT    TYP  RCUT                                 
     2     -6.8782861     23  2.500                                             
     2     -8.2388687     23  2.500                                             
     0     -5.7601759     23  2.500                                             
     0     -0.8493231     23  2.500                                             
     1     -2.7211652     23  2.500                                             
     1     27.2116520     23  2.500                                             
     3     -1.3605826     23  2.500                                             
  local pseudopotential read in
  partial core-charges read in
  partial kinetic energy density read in
  atomic valenz-charges read in
  non local Contribution for L=           2  read in
    real space projection operators read in
  non local Contribution for L=           2  read in
    real space projection operators read in
  non local Contribution for L=           0  read in
    real space projection operators read in
  non local Contribution for L=           0  read in
    real space projection operators read in
  non local Contribution for L=           1  read in
    real space projection operators read in
  non local Contribution for L=           1  read in
    real space projection operators read in
    PAW grid and wavefunctions read in
 
   number of l-projection  operators is LMAX  =           6
   number of lm-projection operators is LMMAX =          18
 
 POTCAR:    PAW_PBE Pt 04Feb2005                  
   SHA256 =  3ed90460adef76debcff1cfb73ee1349b515b1a3db03439735b44de3a8db7dc8 Pt
   COPYR  = (c) Copyright 04Feb2005 Georg Kresse                                
   COPYR  = This file is part of the software VASP. Any use, copying, and all ot
   COPYR  = If you do not have a valid VASP license, you may not use, copy or di
   VRHFIN =Pt: s1d9                                                             
   LEXCH  = PE                                                                  
   EATOM  =   729.1176 eV,   53.5886 Ry                                         
                                                                                
   TITEL  = PAW_PBE Pt 04Feb2005                                                
   LULTRA =        F    use ultrasoft PP ?                                      
   IUNSCR =        1    unscreen: 0-lin 1-nonlin 2-no                           
   RPACOR =    2.330    partial core radius                                     
   POMASS =  195.080; ZVAL   =   10.000    mass and valenz                      
   RCORE  =    2.600    outmost cutoff radius                                   
   RWIGS  =    2.750; RWIGS  =    1.455    wigner-seitz radius (au A)           
   ENMAX  =  230.283; ENMIN  =  172.712 eV                                      
   ICORE  =        3    local potential                                         
   LCOR   =        T    correct aug charges                                     
   LPAW   =        T    paw PP                                                  
   EAUG   =  358.966                                                            
   DEXC   =    0.000                                                            
   RMAX   =    2.658    core radius for proj-oper                               
   RAUG   =    1.300    factor for augmentation sphere                          
   RDEP   =    2.761    radius for radial grids                                 
   RDEPT  =    2.203    core radius for aug-charge                              
                                                                                
   Atomic configuration                                                         
   16 entries                                                                   
     n  l   j            E        occ.                                          
     1  0  0.50    -78401.1885   2.0000                                         
     2  0  0.50    -13770.7750   2.0000                                         
     2  1  1.50    -11931.0468   6.0000                                         
     3  0  0.50     -3234.7234   2.0000                                         
     3  1  1.50     -2699.2216   6.0000                                         
     3  2  2.50     -2119.5714  10.0000                                         
     4  0  0.50      -695.1528   2.0000                                         
     4  1  1.50      -519.6034   6.0000                                         
     4  2  2.50      -306.6786  10.0000                                         
     4  3  3.50       -70.1041  14.0000                                         
     5  0  0.50      -101.7747   2.0000                                         
     5  1  1.50       -55.9873   6.0000                                         
     5  2  2.50        -6.1423   9.0000                                         
     6  0  0.50        -5.6573   1.0000                                         
     6  1  1.50        -6.8029   0.0000                                         
     5  3  2.50        -1.3606   0.0000                                         
   Description                                                                  
     l       E           TYP  RCUT    TYP  RCUT                                 
     2     -6.1423404     23  2.500                                             
     2     -7.5029230     23  2.500                                             
     0     -5.6573207     23  2.500                                             
     0      0.7416693     23  2.500                                             
     1     -2.7211652     23  2.600                                             
     1     20.4087390     23  2.600                                             
     3     -1.3605826     23  2.500                                             
  local pseudopotential read in
  partial core-charges read in
  partial kinetic energy density read in
  atomic valenz-charges read in
  non local Contribution for L=           2  read in
    real space projection operators read in
  non local Contribution for L=           2  read in
    real space projection operators read in
  non local Contribution for L=           0  read in
    real space projection operators read in
  non local Contribution for L=           0  read in
    real space projection operators read in
  non local Contribution for L=           1  read in
    real space projection operators read in
  non local Contribution for L=           1  read in
    real space projection operators read in
    PAW grid and wavefunctions read in
 
   number of l-projection  operators is LMAX  =           6
   number of lm-projection operators is LMMAX =          18
 
 POTCAR:    PAW_PBE Ir 06Sep2000                  
   SHA256 =  7c6af8d4d487b237782eb51e6f62977b27a1da78c3c96acd1cebefd6c308f120 Ir
   COPYR  = (c) Copyright 06Sep2000 Georg Kresse                                
   COPYR  = This file is part of the software VASP. Any use, copying, and all ot
   COPYR  = If you do not have a valid VASP license, you may not use, copy or di
   VRHFIN =Ir: s1d8                                                             
   LEXCH  = PE                                                                  
   EATOM  =   560.1833 eV,   41.1723 Ry                                         
                                                                                
   TITEL  = PAW_PBE Ir 06Sep2000                                                
   LULTRA =        F    use ultrasoft PP ?                                      
   IUNSCR =        1    unscreen: 0-lin 1-nonlin 2-no                           
   RPACOR =    2.250    partial core radius                                     
   POMASS =  192.220; ZVAL   =    9.000    mass and valenz                      
   RCORE  =    2.600    outmost cutoff radius                                   
   RWIGS  =    2.690; RWIGS  =    1.423    wigner-seitz radius (au A)           
   ENMAX  =  210.864; ENMIN  =  158.148 eV                                      
   RCLOC  =    1.857    cutoff for local pot                                    
   LCOR   =        T    correct aug charges                                     
   LPAW   =        T    paw PP                                                  
   EAUG   =  318.962                                                            
   DEXC   =    0.000                                                            
   RMAX   =    2.667    core radius for proj-oper                               
   RAUG   =    1.300    factor for augmentation sphere                          
   RDEP   =    2.748    radius for radial grids                                 
   RDEPT  =    2.300    core radius for aug-charge                              
                                                                                
   Atomic configuration                                                         
   16 entries                                                                   
     n  l   j            E        occ.                                          
     1  0  0.50    -76100.0449   2.0000                                         
     2  0  0.50    -13308.1683   2.0000                                         
     2  1  1.50    -11558.0021   6.0000                                         
     3  0  0.50     -3110.7274   2.0000                                         
     3  1  1.50     -2599.2109   6.0000                                         
     3  2  2.50     -2037.1515  10.0000                                         
     4  0  0.50      -661.6001   2.0000                                         
     4  1  1.50      -493.8981   6.0000                                         
     4  2  2.50      -288.1909  10.0000                                         
     4  3  3.50       -59.5718  14.0000                                         
     5  0  0.50       -95.3879   2.0000                                         
     5  1  1.50       -52.2747   6.0000                                         
     5  2  2.50        -5.4180   8.0000                                         
     6  0  0.50        -5.5479   1.0000                                         
     6  1  1.50        -6.8029   0.0000                                         
     5  3  2.50        -1.3606   0.0000                                         
   Description                                                                  
     l       E           TYP  RCUT    TYP  RCUT                                 
     2     -5.4179967     23  2.600                                             
     2     -6.7785793     23  2.600                                             
     0     -5.5478636     23  2.600                                             
     0      2.2542272     23  2.600                                             
     1     -2.7211652     23  2.600                                             
     1     20.4087390     23  2.600                                             
  local pseudopotential read in
  partial core-charges read in
  partial kinetic energy density read in
  atomic valenz-charges read in
  non local Contribution for L=           2  read in
    real space projection operators read in
  non local Contribution for L=           2  read in
    real space projection operators read in
  non local Contribution for L=           0  read in
    real space projection operators read in
  non local Contribution for L=           0  read in
    real space projection operators read in
  non local Contribution for L=           1  read in
    real space projection operators read in
  non local Contribution for L=           1  read in
    real space projection operators read in
    PAW grid and wavefunctions read in
 
   number of l-projection  operators is LMAX  =           6
   number of lm-projection operators is LMMAX =          18
 
  PAW_PBE Au 04Oct2007                  :
 energy of atom  1       EATOM= -926.0867
 kinetic energy error for atom=    0.0152 (will be added to EATOM!!)
  PAW_PBE Pt 04Feb2005                  :
 energy of atom  2       EATOM= -729.1176
 kinetic energy error for atom=    0.0144 (will be added to EATOM!!)
  PAW_PBE Ir 06Sep2000                  :
 energy of atom  3       EATOM= -560.1833
 kinetic energy error for atom=    0.0056 (will be added to EATOM!!)
 
 
 POSCAR: Au Pt Ir                                
  positions in cartesian coordinates
  No initial velocities read in
 exchange correlation table for  LEXCH =        8
   RHO(1)=    0.500       N(1)  =     2000
   RHO(2)=  100.500       N(2)  =     4000
 


--------------------------------------------------------------------------------------------------------


 ion  position               nearest neighbor table
   1  0.000  0.000  0.390-   3 2.78   3 2.78   4 2.78   4 2.78   2 2.78   2 2.78   5 2.82   6 2.82
                             7 2.82
   2  0.500  0.000  0.390-   4 2.78   3 2.78   4 2.78   3 2.78   1 2.78   1 2.78   6 2.82   5 2.82
                             8 2.82
   3  0.000  0.500  0.390-   1 2.78   1 2.78   2 2.78   2 2.78   4 2.78   4 2.78   7 2.82   5 2.82
                             8 2.82
   4  0.500  0.500  0.390-   2 2.78   1 2.78   2 2.78   1 2.78   3 2.78   3 2.78   8 2.82   7 2.82
                             6 2.82
   5  0.167  0.167  0.465-   7 2.78   7 2.78   8 2.78   8 2.78   6 2.78   6 2.78  11 2.80  16 2.80
                             9 2.80   1 2.82   3 2.82   2 2.82
   6  0.667  0.167  0.465-   8 2.78   7 2.78   8 2.78   7 2.78   5 2.78   5 2.78   9 2.80  10 2.80
                            16 2.80   2 2.82   4 2.82   1 2.82
   7  0.167  0.667  0.465-   5 2.78   5 2.78   6 2.78   6 2.78   8 2.78   8 2.78   9 2.80  10 2.80
                            11 2.80   3 2.82   4 2.82   1 2.82
   8  0.667  0.667  0.465-   6 2.78   5 2.78   6 2.78   5 2.78   7 2.78   7 2.78  11 2.80  16 2.80
                            10 2.80   4 2.82   2 2.82   3 2.82
   9  0.333  0.333  0.539-  11 2.78  10 2.78  11 2.78  10 2.78  16 2.78  16 2.78   6 2.80   7 2.80
                             5 2.80  15 2.83  13 2.83  14 2.83
  10  0.833  0.833  0.539-  16 2.78   9 2.78  16 2.78   9 2.78  11 2.78  11 2.78   6 2.80   7 2.80
                             8 2.80  12 2.83  14 2.83  13 2.83
  11  0.333  0.833  0.539-   9 2.78   9 2.78  16 2.78  16 2.78  10 2.78  10 2.78   5 2.80   8 2.80
                             7 2.80  13 2.83  15 2.83  12 2.83
  12  0.000  0.000  0.615-  14 2.78  14 2.78  15 2.78  15 2.78  13 2.78  13 2.78  10 2.83  16 2.83
                            11 2.83
  13  0.500  0.000  0.615-  15 2.78  14 2.78  15 2.78  14 2.78  12 2.78  12 2.78  11 2.83   9 2.83
                            10 2.83
  14  0.000  0.500  0.615-  12 2.78  12 2.78  13 2.78  13 2.78  15 2.78  15 2.78  16 2.83  10 2.83
                             9 2.83
  15  0.500  0.500  0.615-  13 2.78  12 2.78  13 2.78  12 2.78  14 2.78  14 2.78   9 2.83  11 2.83
                            16 2.83
  16  0.833  0.333  0.539-  10 2.78  10 2.78  11 2.78  11 2.78   9 2.78   9 2.78   5 2.80   8 2.80
                             6 2.80  14 2.83  12 2.83  15 2.83
 
  LATTYP: Found a hexagonal cell.
 ALAT       =     5.5578593001
 C/A-ratio  =     5.5429542221
  
  Lattice vectors:
  
 A1 = (   2.7789296501,  -4.8132473446,   0.0000000000)
 A2 = (  -5.5578593001,   0.0000000000,   0.0000000000)
 A3 = (   0.0000000000,   0.0000000000, -30.8069596737)


Analysis of symmetry for initial positions (statically):
=====================================================================
 Subroutine PRICEL returns:
 Original cell was already a primitive cell.
 

 Routine SETGRP: Setting up the symmetry group for a 
 hexagonal supercell.


 Subroutine GETGRP returns: Found  2 space group operations
 (whereof  2 operations were pure point group operations)
 out of a pool of 24 trial point group operations.


The static configuration has the point symmetry C_1h.


Analysis of symmetry for dynamics (positions and initial velocities):
=====================================================================
 Subroutine PRICEL returns:
 Original cell was already a primitive cell.
 

 Routine SETGRP: Setting up the symmetry group for a 
 hexagonal supercell.


 Subroutine GETGRP returns: Found  2 space group operations
 (whereof  2 operations were pure point group operations)
 out of a pool of 24 trial point group operations.


The dynamic configuration has the point symmetry C_1h.


Analysis of constrained symmetry for selective dynamics:
=====================================================================
 Subroutine PRICEL returns:
 Original cell was already a primitive cell.
 

 Routine SETGRP: Setting up the symmetry group for a 
 hexagonal supercell.


 Subroutine GETGRP returns: Found  2 space group operations
 (whereof  2 operations were pure point group operations)
 out of a pool of 24 trial point group operations.


The constrained configuration has the point symmetry C_1h.


 Subroutine INISYM returns: Found  2 space group operations
 (whereof  2 operations are pure point group operations),
 and found     1 'primitive' translations

 
 
 KPOINTS: KPOINTS created by Atomic Simulation Env

Automatic generation of k-mesh.
Space group operators:
 irot       det(A)        alpha          n_x          n_y          n_z        tau_x        tau_y        tau_z
    1     1.000000     0.000001     1.000000     0.000000     0.000000     0.000000     0.000000     0.000000
    2    -1.000000   180.000000     1.000000     0.000000     0.000000     0.000000     0.000000     0.000000
 
 Subroutine IBZKPT returns following result:
 ===========================================
 
 Found     52 irreducible k-points:
 
 Following reciprocal coordinates:
            Coordinates               Weight
  0.062500  0.062500  0.000000     32.000000
  0.000000  0.062500  0.000000     16.000000
  0.187500  0.062500  0.000000     32.000000
  0.125000  0.187500  0.000000     32.000000
 -0.062500  0.125000  0.000000     32.000000
  0.312500  0.062500  0.000000     32.000000
  0.250000  0.312500  0.000000     32.000000
 -0.062500  0.250000  0.000000     32.000000
  0.437500  0.062500  0.000000     32.000000
  0.375000  0.437500  0.000000     32.000000
 -0.062500  0.375000  0.000000     32.000000
 -0.437500  0.062500  0.000000     32.000000
  0.500000 -0.437500  0.000000     32.000000
 -0.062500  0.500000  0.000000     32.000000
 -0.312500  0.062500  0.000000     32.000000
 -0.375000 -0.312500  0.000000     32.000000
 -0.062500 -0.375000  0.000000     32.000000
 -0.187500  0.062500  0.000000     32.000000
 -0.250000 -0.187500  0.000000     32.000000
 -0.062500 -0.250000  0.000000     32.000000
 -0.062500  0.062500  0.000000     32.000000
 -0.125000 -0.062500  0.000000     16.000000
  0.187500  0.187500  0.000000     32.000000
  0.000000  0.187500  0.000000     16.000000
  0.312500  0.187500  0.000000     32.000000
  0.125000  0.312500  0.000000     32.000000
 -0.187500  0.125000  0.000000     32.000000
  0.437500  0.187500  0.000000     32.000000
  0.250000  0.437500  0.000000     32.000000
 -0.187500  0.250000  0.000000     32.000000
 -0.437500  0.187500  0.000000     32.000000
  0.375000 -0.437500  0.000000     32.000000
 -0.187500  0.375000  0.000000     32.000000
 -0.312500  0.187500  0.000000     32.000000
  0.500000 -0.312500  0.000000     32.000000
 -0.187500  0.500000  0.000000     32.000000
 -0.187500  0.187500  0.000000     32.000000
 -0.375000 -0.187500  0.000000     16.000000
  0.312500  0.312500  0.000000     32.000000
  0.000000  0.312500  0.000000     16.000000
  0.437500  0.312500  0.000000     32.000000
  0.125000  0.437500  0.000000     32.000000
 -0.312500  0.125000  0.000000     32.000000
 -0.437500  0.312500  0.000000     32.000000
  0.250000 -0.437500  0.000000     32.000000
 -0.312500  0.250000  0.000000     32.000000
 -0.312500  0.312500  0.000000     32.000000
  0.375000 -0.312500  0.000000     16.000000
  0.437500  0.437500  0.000000     32.000000
  0.000000  0.437500  0.000000     16.000000
 -0.437500  0.437500  0.000000     32.000000
  0.125000 -0.437500  0.000000     16.000000
 
 Following cartesian coordinates:
            Coordinates               Weight
  0.011245  0.006492  0.000000     32.000000
  0.000000  0.012985  0.000000     16.000000
  0.033736 -0.006492  0.000000     32.000000
  0.022491  0.025970  0.000000     32.000000
 -0.011245  0.032462  0.000000     32.000000
  0.056227 -0.019477  0.000000     32.000000
  0.044981  0.038955  0.000000     32.000000
 -0.011245  0.058432  0.000000     32.000000
  0.078717 -0.032462  0.000000     32.000000
  0.067472  0.051940  0.000000     32.000000
 -0.011245  0.084402  0.000000     32.000000
 -0.078717  0.058432  0.000000     32.000000
  0.089963 -0.142835  0.000000     32.000000
 -0.011245  0.110372  0.000000     32.000000
 -0.056227  0.045447  0.000000     32.000000
 -0.067472 -0.025970  0.000000     32.000000
 -0.011245 -0.071417  0.000000     32.000000
 -0.033736  0.032462  0.000000     32.000000
 -0.044981 -0.012985  0.000000     32.000000
 -0.011245 -0.045447  0.000000     32.000000
 -0.011245  0.019477  0.000000     32.000000
 -0.022491  0.000000  0.000000     16.000000
  0.033736  0.019477  0.000000     32.000000
  0.000000  0.038955  0.000000     16.000000
  0.056227  0.006492  0.000000     32.000000
  0.022491  0.051940  0.000000     32.000000
 -0.033736  0.045447  0.000000     32.000000
  0.078717 -0.006492  0.000000     32.000000
  0.044981  0.064925  0.000000     32.000000
 -0.033736  0.071417  0.000000     32.000000
 -0.078717  0.084402  0.000000     32.000000
  0.067472 -0.129850  0.000000     32.000000
 -0.033736  0.097387  0.000000     32.000000
 -0.056227  0.071417  0.000000     32.000000
  0.089963 -0.116865  0.000000     32.000000
 -0.033736  0.123357  0.000000     32.000000
 -0.033736  0.058432  0.000000     32.000000
 -0.067472  0.000000  0.000000     16.000000
  0.056227  0.032462  0.000000     32.000000
  0.000000  0.064925  0.000000     16.000000
  0.078717  0.019477  0.000000     32.000000
  0.022491  0.077910  0.000000     32.000000
 -0.056227  0.058432  0.000000     32.000000
 -0.078717  0.110372  0.000000     32.000000
  0.044981 -0.116865  0.000000     32.000000
 -0.056227  0.084402  0.000000     32.000000
 -0.056227  0.097387  0.000000     32.000000
  0.067472 -0.103880  0.000000     16.000000
  0.078717  0.045447  0.000000     32.000000
  0.000000  0.090895  0.000000     16.000000
 -0.078717  0.136342  0.000000     32.000000
  0.022491 -0.103880  0.000000     16.000000
 


--------------------------------------------------------------------------------------------------------




 Dimension of arrays:
   k-points           NKPTS =     52   k-points in BZ     NKDIM =     52   number of bands    NBANDS=     96
   number of dos      NEDOS =    301   number of ions     NIONS =     16
   non local maximal  LDIM  =      6   non local SUM 2l+1 LMDIM =     18
   total plane-waves  NPLWV = 112896
   max r-space proj   IRMAX =      1   max aug-charges    IRDMAX=  10104
   dimension x,y,z NGX =    28 NGY =   28 NGZ =  144
   dimension x,y,z NGXF=    56 NGYF=   56 NGZF=  288
   support grid    NGXF=    56 NGYF=   56 NGZF=  288
   ions per type =               1  14   1
   NGX,Y,Z   is equivalent  to a cutoff of   8.38,  8.38,  7.77 a.u.
   NGXF,Y,Z  is equivalent  to a cutoff of  16.75, 16.75, 15.54 a.u.

 SYSTEM =  unknown system                          
 POSCAR =  Au Pt Ir                                

 Startparameter for this run:
   NWRITE =      2    write-flag & timer
   PREC   = normal    normal or accurate (medium, high low for compatibility)
   ISTART =      0    job   : 0-new  1-cont  2-samecut
   ICHARG =      2    charge: 1-file 2-atom 10-const
   ISPIN  =      1    spin polarized calculation?
   LNONCOLLINEAR =      F non collinear calculations
   LSORBIT =      F    spin-orbit coupling
   INIWAV =      1    electr: 0-lowe 1-rand  2-diag
   LASPH  =      F    aspherical Exc in radial PAW
   METAGGA=      F    non-selfconsistent MetaGGA calc.

 Electronic Relaxation 1
   ENCUT  =  350.0 eV  25.72 Ry    5.07 a.u.   8.48  8.48 46.99*2*pi/ulx,y,z
   ENINI  =  350.0     initial cutoff
   ENAUG  =  359.0 eV  augmentation charge cutoff
   NELM   =     60;   NELMIN=  2; NELMDL= -5     # of ELM steps 
   EDIFF  = 0.1E-04   stopping-criterion for ELM
   LREAL  =      F    real-space projection
   NLSPLINE    = F    spline interpolate recip. space projectors
   LCOMPAT=      F    compatible to vasp.4.4
   GGA_COMPAT  = T    GGA compatible to vasp.4.4-vasp.4.6
   LMAXPAW     = -100 max onsite density
   LMAXMIX     =    2 max onsite mixed and CHGCAR
   VOSKOWN=      0    Vosko Wilk Nusair interpolation
   ROPT   =    0.00000   0.00000   0.00000
 Ionic relaxation
   EDIFFG = -.5E-01   stopping-criterion for IOM
   NSW    =      0    number of steps for IOM
   NBLOCK =      1;   KBLOCK =      1    inner block; outer block 
   IBRION =     -1    ionic relax: 0-MD 1-quasi-New 2-CG
   NFREE  =      1    steps in history (QN), initial steepest desc. (CG)
   ISIF   =      2    stress and relaxation
   IWAVPR =     10    prediction:  0-non 1-charg 2-wave 3-comb
   ISYM   =      2    0-nonsym 1-usesym 2-fastsym
   LCORR  =      T    Harris-Foulkes like correction to forces

   POTIM  = 0.5000    time-step for ionic-motion
   TEIN   =    0.0    initial temperature
   TEBEG  =    0.0;   TEEND  =   0.0 temperature during run
   SMASS  =  -3.00    Nose mass-parameter (am)
   estimated Nose-frequenzy (Omega)   =  0.10E-29 period in steps =****** mass=  -0.706E-27a.u.
   SCALEE = 1.0000    scale energy and forces
   NPACO  =    256;   APACO  = 16.0  distance and # of slots for P.C.
   PSTRESS=    0.0 pullay stress

  Mass of Ions in am
   POMASS = 196.97195.08192.22
  Ionic Valenz
   ZVAL   =  11.00 10.00  9.00
  Atomic Wigner-Seitz radii
   RWIGS  =  -1.00 -1.00 -1.00
  virtual crystal weights 
   VCA    =   1.00  1.00  1.00
   NELECT =     160.0000    total number of electrons
   NUPDOWN=      -1.0000    fix difference up-down

 DOS related values:
   EMIN   =  10.00;   EMAX   =-10.00  energy-range for DOS
   EFERMI =   0.00
   ISMEAR =     1;   SIGMA  =   0.20  broadening in eV -4-tet -1-fermi 0-gaus

 Electronic relaxation 2 (details)
   IALGO  =     38    algorithm
   LDIAG  =      T    sub-space diagonalisation (order eigenvalues)
   LSUBROT=      F    optimize rotation matrix (better conditioning)
   TURBO    =      0    0=normal 1=particle mesh
   IRESTART =      0    0=no restart 2=restart with 2 vectors
   NREBOOT  =      0    no. of reboots
   NMIN     =      0    reboot dimension
   EREF     =   0.00    reference energy to select bands
   IMIX   =      4    mixing-type and parameters
     AMIX     =   0.40;   BMIX     =  1.00
     AMIX_MAG =   1.60;   BMIX_MAG =  1.00
     AMIN     =   0.10
     WC   =   100.;   INIMIX=   1;  MIXPRE=   1;  MAXMIX= -45

 Intra band minimization:
   WEIMIN = 0.0000     energy-eigenvalue tresh-hold
   EBREAK =  0.26E-07  absolut break condition
   DEPER  =   0.30     relativ break condition  

   TIME   =   0.40     timestep for ELM

  volume/ion in A,a.u.               =      51.51       347.59
  Fermi-wavevector in a.u.,A,eV,Ry     =   0.947945  1.791357 12.226201  0.898600
  Thomas-Fermi vector in A             =   2.076087
 
 Write flags
   LWAVE        =      F    write WAVECAR
   LDOWNSAMPLE  =      F    k-point downsampling of WAVECAR
   LCHARG       =      F    write CHGCAR
   LVTOT        =      F    write LOCPOT, total local potential
   LVHAR        =      F    write LOCPOT, Hartree potential only
   LELF         =      F    write electronic localiz. function (ELF)
   LORBIT       =      0    0 simple, 1 ext, 2 COOP (PROOUT), +10 PAW based schemes


 Dipole corrections
   LMONO  =      F    monopole corrections only (constant potential shift)
   LDIPOL =      F    correct potential (dipole corrections)
   IDIPOL =      3    1-x, 2-y, 3-z, 4-all directions 
   EPSILON=  1.0000000 bulk dielectric constant

 Exchange correlation treatment:
   GGA     =    PE    GGA type
   LEXCH   =     8    internal setting for exchange type
   VOSKOWN=      0    Vosko Wilk Nusair interpolation
   LHFCALC =     F    Hartree Fock is set to
   LHFONE  =     F    Hartree Fock one center treatment
   AEXX    =    0.0000 exact exchange contribution

 Linear response parameters
   LEPSILON=     F    determine dielectric tensor
   LRPA    =     F    only Hartree local field effects (RPA)
   LNABLA  =     F    use nabla operator in PAW spheres
   LVEL    =     F    velocity operator in full k-point grid
   LINTERFAST=   F  fast interpolation
   KINTER  =     0    interpolate to denser k-point grid
   CSHIFT  =0.1000    complex shift for real part using Kramers Kronig
   OMEGAMAX=  -1.0    maximum frequency
   DEG_THRESHOLD= 0.2000000E-02 threshold for treating states as degnerate
   RTIME   =   -0.100 relaxation time in fs
  (WPLASMAI=    0.000 imaginary part of plasma frequency in eV, 0.658/RTIME)
   DFIELD  = 0.0000000 0.0000000 0.0000000 field for delta impulse in time
 
 Orbital magnetization related:
   ORBITALMAG=     F  switch on orbital magnetization
   LCHIMAG   =     F  perturbation theory with respect to B field
   DQ        =  0.001000  dq finite difference perturbation B field
   LLRAUG    =     F  two centre corrections for induced B field



--------------------------------------------------------------------------------------------------------


 Static calculation
 charge density and potential will be updated during run
 non-spin polarized calculation
 Variant of blocked Davidson
 Davidson routine will perform the subspace rotation
 perform sub-space diagonalisation
    after iterative eigenvector-optimisation
 modified Broyden-mixing scheme, WC =      100.0
 initial mixing is a Kerker type mixing with AMIX =  0.4000 and BMIX =      1.0000
 Hartree-type preconditioning will be used
 using additional bands           16
 reciprocal scheme for non local part
 use partial core corrections
 calculate Harris-corrections to forces 
   (improved forces if not selfconsistent)
 use gradient corrections 
 use of overlap-Matrix (Vanderbilt PP)
 Methfessel and Paxton  Order N= 1 SIGMA  =   0.20


--------------------------------------------------------------------------------------------------------


  energy-cutoff  :      350.00
  volume of cell :      824.13
      direct lattice vectors                 reciprocal lattice vectors
     5.557859300  0.000000000  0.000000000     0.179925390 -0.103879972  0.000000000
     2.778929650  4.813247345  0.000000000     0.000000000  0.207759944  0.000000000
     0.000000000  0.000000000 30.806959674     0.000000000  0.000000000  0.032460198

  length of vectors
     5.557859300  5.557859300 30.806959674     0.207759944  0.207759944  0.032460198


 
 k-points in units of 2pi/SCALE and weight: KPOINTS created by Atomic Simulation Env
   0.01124534  0.00649250  0.00000000       0.021
   0.00000000  0.01298500  0.00000000       0.010
   0.03373601 -0.00649250  0.00000000       0.021
   0.02249067  0.02596999  0.00000000       0.021
  -0.01124534  0.03246249  0.00000000       0.021
   0.05622668 -0.01947749  0.00000000       0.021
   0.04498135  0.03895499  0.00000000       0.021
  -0.01124534  0.05843248  0.00000000       0.021
   0.07871736 -0.03246249  0.00000000       0.021
   0.06747202  0.05193999  0.00000000       0.021
  -0.01124534  0.08440248  0.00000000       0.021
  -0.07871736  0.05843248  0.00000000       0.021
   0.08996269 -0.14283496  0.00000000       0.021
  -0.01124534  0.11037247  0.00000000       0.021
  -0.05622668  0.04544749  0.00000000       0.021
  -0.06747202 -0.02596999  0.00000000       0.021
  -0.01124534 -0.07141748  0.00000000       0.021
  -0.03373601  0.03246249  0.00000000       0.021
  -0.04498135 -0.01298500  0.00000000       0.021
  -0.01124534 -0.04544749  0.00000000       0.021
  -0.01124534  0.01947749  0.00000000       0.021
  -0.02249067  0.00000000  0.00000000       0.010
   0.03373601  0.01947749  0.00000000       0.021
   0.00000000  0.03895499  0.00000000       0.010
   0.05622668  0.00649250  0.00000000       0.021
   0.02249067  0.05193999  0.00000000       0.021
  -0.03373601  0.04544749  0.00000000       0.021
   0.07871736 -0.00649250  0.00000000       0.021
   0.04498135  0.06492498  0.00000000       0.021
  -0.03373601  0.07141748  0.00000000       0.021
  -0.07871736  0.08440248  0.00000000       0.021
   0.06747202 -0.12984997  0.00000000       0.021
  -0.03373601  0.09738747  0.00000000       0.021
  -0.05622668  0.07141748  0.00000000       0.021
   0.08996269 -0.11686497  0.00000000       0.021
  -0.03373601  0.12335747  0.00000000       0.021
  -0.03373601  0.05843248  0.00000000       0.021
  -0.06747202  0.00000000  0.00000000       0.010
   0.05622668  0.03246249  0.00000000       0.021
   0.00000000  0.06492498  0.00000000       0.010
   0.07871736  0.01947749  0.00000000       0.021
   0.02249067  0.07790998  0.00000000       0.021
  -0.05622668  0.05843248  0.00000000       0.021
  -0.07871736  0.11037247  0.00000000       0.021
   0.04498135 -0.11686497  0.00000000       0.021
  -0.05622668  0.08440248  0.00000000       0.021
  -0.05622668  0.09738747  0.00000000       0.021
   0.06747202 -0.10387997  0.00000000       0.010
   0.07871736  0.04544749  0.00000000       0.021
   0.00000000  0.09089498  0.00000000       0.010
  -0.07871736  0.13634246  0.00000000       0.021
   0.02249067 -0.10387997  0.00000000       0.010
 
 k-points in reciprocal lattice and weights: KPOINTS created by Atomic Simulation Env
   0.06250000  0.06250000  0.00000000       0.021
   0.00000000  0.06250000  0.00000000       0.010
   0.18750000  0.06250000  0.00000000       0.021
   0.12500000  0.18750000  0.00000000       0.021
  -0.06250000  0.12500000  0.00000000       0.021
   0.31250000  0.06250000  0.00000000       0.021
   0.25000000  0.31250000  0.00000000       0.021
  -0.06250000  0.25000000  0.00000000       0.021
   0.43750000  0.06250000  0.00000000       0.021
   0.37500000  0.43750000  0.00000000       0.021
  -0.06250000  0.37500000  0.00000000       0.021
  -0.43750000  0.06250000  0.00000000       0.021
   0.50000000 -0.43750000  0.00000000       0.021
  -0.06250000  0.50000000  0.00000000       0.021
  -0.31250000  0.06250000  0.00000000       0.021
  -0.37500000 -0.31250000  0.00000000       0.021
  -0.06250000 -0.37500000  0.00000000       0.021
  -0.18750000  0.06250000  0.00000000       0.021
  -0.25000000 -0.18750000  0.00000000       0.021
  -0.06250000 -0.25000000  0.00000000       0.021
  -0.06250000  0.06250000  0.00000000       0.021
  -0.12500000 -0.06250000  0.00000000       0.010
   0.18750000  0.18750000  0.00000000       0.021
   0.00000000  0.18750000  0.00000000       0.010
   0.31250000  0.18750000  0.00000000       0.021
   0.12500000  0.31250000  0.00000000       0.021
  -0.18750000  0.12500000  0.00000000       0.021
   0.43750000  0.18750000  0.00000000       0.021
   0.25000000  0.43750000  0.00000000       0.021
  -0.18750000  0.25000000  0.00000000       0.021
  -0.43750000  0.18750000  0.00000000       0.021
   0.37500000 -0.43750000  0.00000000       0.021
  -0.18750000  0.37500000  0.00000000       0.021
  -0.31250000  0.18750000  0.00000000       0.021
   0.50000000 -0.31250000  0.00000000       0.021
  -0.18750000  0.50000000  0.00000000       0.021
  -0.18750000  0.18750000  0.00000000       0.021
  -0.37500000 -0.18750000  0.00000000       0.010
   0.31250000  0.31250000  0.00000000       0.021
   0.00000000  0.31250000  0.00000000       0.010
   0.43750000  0.31250000  0.00000000       0.021
   0.12500000  0.43750000  0.00000000       0.021
  -0.31250000  0.12500000  0.00000000       0.021
  -0.43750000  0.31250000  0.00000000       0.021
   0.25000000 -0.43750000  0.00000000       0.021
  -0.31250000  0.25000000  0.00000000       0.021
  -0.31250000  0.31250000  0.00000000       0.021
   0.37500000 -0.31250000  0.00000000       0.010
   0.43750000  0.43750000  0.00000000       0.021
   0.00000000  0.43750000  0.00000000       0.010
  -0.43750000  0.43750000  0.00000000       0.021
   0.12500000 -0.43750000  0.00000000       0.010
 
 position of ions in fractional coordinates (direct lattice) 
   0.00000000  0.00000000  0.38952237
   0.50000000  0.00000000  0.38952237
   0.00000000  0.50000000  0.38952237
   0.50000000  0.50000000  0.38952237
   0.16666667  0.16666667  0.46468540
   0.66666667  0.16666667  0.46468540
   0.16666667  0.66666667  0.46468540
   0.66666667  0.66666667  0.46468540
   0.33333333  0.33333333  0.53920296
   0.83333333  0.83333333  0.53920296
   0.33333333  0.83333333  0.53920296
   0.00000000  0.00000000  0.61486043
   0.50000000  0.00000000  0.61486043
   0.00000000  0.50000000  0.61486043
   0.50000000  0.50000000  0.61486043
   0.83333333  0.33333333  0.53920296
 
 position of ions in cartesian coordinates  (Angst):
   0.00000000  0.00000000 12.00000000
   2.77892965  0.00000000 12.00000000
   1.38946483  2.40662367 12.00000000
   4.16839448  2.40662367 12.00000000
   1.38946483  0.80220789 14.31554441
   4.16839448  0.80220789 14.31554441
   2.77892965  3.20883156 14.31554441
   5.55785930  3.20883156 14.31554441
   2.77892965  1.60441578 16.61120399
   6.94732413  4.01103945 16.61120399
   4.16839448  4.01103945 16.61120399
   0.00000000  0.00000000 18.94198048
   2.77892965  0.00000000 18.94198048
   1.38946483  2.40662367 18.94198048
   4.16839448  2.40662367 18.94198048
   5.55785930  1.60441578 16.61120399
 


--------------------------------------------------------------------------------------------------------


 k-point  1 :   0.0625 0.0625 0.0000  plane waves:   12325
 k-point  2 :   0.0000 0.0625 0.0000  plane waves:   12325
 k-point  3 :   0.1875 0.0625 0.0000  plane waves:   12294
 k-point  4 :   0.1250 0.1875 0.0000  plane waves:   12294
 k-point  5 :  -0.0625 0.1250 0.0000  plane waves:   12294
 k-point  6 :   0.3125 0.0625 0.0000  plane waves:   12263
 k-point  7 :   0.2500 0.3125 0.0000  plane waves:   12263
 k-point  8 :  -0.0625 0.2500 0.0000  plane waves:   12263
 k-point  9 :   0.4375 0.0625 0.0000  plane waves:   12221
 k-point 10 :   0.3750 0.4375 0.0000  plane waves:   12221
 k-point 11 :  -0.0625 0.3750 0.0000  plane waves:   12221
 k-point 12 :  -0.4375 0.0625 0.0000  plane waves:   12211
 k-point 13 :   0.5000-0.4375 0.0000  plane waves:   12211
 k-point 14 :  -0.0625 0.5000 0.0000  plane waves:   12211
 k-point 15 :  -0.3125 0.0625 0.0000  plane waves:   12242
 k-point 16 :  -0.3750-0.3125 0.0000  plane waves:   12242
 k-point 17 :  -0.0625-0.3750 0.0000  plane waves:   12242
 k-point 18 :  -0.1875 0.0625 0.0000  plane waves:   12280
 k-point 19 :  -0.2500-0.1875 0.0000  plane waves:   12280
 k-point 20 :  -0.0625-0.2500 0.0000  plane waves:   12280
 k-point 21 :  -0.0625 0.0625 0.0000  plane waves:   12329
 k-point 22 :  -0.1250-0.0625 0.0000  plane waves:   12329
 k-point 23 :   0.1875 0.1875 0.0000  plane waves:   12277
 k-point 24 :   0.0000 0.1875 0.0000  plane waves:   12277
 k-point 25 :   0.3125 0.1875 0.0000  plane waves:   12288
 k-point 26 :   0.1250 0.3125 0.0000  plane waves:   12288
 k-point 27 :  -0.1875 0.1250 0.0000  plane waves:   12288
 k-point 28 :   0.4375 0.1875 0.0000  plane waves:   12234
 k-point 29 :   0.2500 0.4375 0.0000  plane waves:   12234
 k-point 30 :  -0.1875 0.2500 0.0000  plane waves:   12234
 k-point 31 :  -0.4375 0.1875 0.0000  plane waves:   12216
 k-point 32 :   0.3750-0.4375 0.0000  plane waves:   12216
 k-point 33 :  -0.1875 0.3750 0.0000  plane waves:   12216
 k-point 34 :  -0.3125 0.1875 0.0000  plane waves:   12215
 k-point 35 :   0.5000-0.3125 0.0000  plane waves:   12215
 k-point 36 :  -0.1875 0.5000 0.0000  plane waves:   12215
 k-point 37 :  -0.1875 0.1875 0.0000  plane waves:   12289
 k-point 38 :  -0.3750-0.1875 0.0000  plane waves:   12289
 k-point 39 :   0.3125 0.3125 0.0000  plane waves:   12275
 k-point 40 :   0.0000 0.3125 0.0000  plane waves:   12275
 k-point 41 :   0.4375 0.3125 0.0000  plane waves:   12239
 k-point 42 :   0.1250 0.4375 0.0000  plane waves:   12239
 k-point 43 :  -0.3125 0.1250 0.0000  plane waves:   12239
 k-point 44 :  -0.4375 0.3125 0.0000  plane waves:   12235
 k-point 45 :   0.2500-0.4375 0.0000  plane waves:   12235
 k-point 46 :  -0.3125 0.2500 0.0000  plane waves:   12235
 k-point 47 :  -0.3125 0.3125 0.0000  plane waves:   12232
 k-point 48 :   0.3750-0.3125 0.0000  plane waves:   12232
 k-point 49 :   0.4375 0.4375 0.0000  plane waves:   12200
 k-point 50 :   0.0000 0.4375 0.0000  plane waves:   12200
 k-point 51 :  -0.4375 0.4375 0.0000  plane waves:   12214
 k-point 52 :   0.1250-0.4375 0.0000  plane waves:   12214

 maximum and minimum number of plane-waves per node :     12329    12200

 maximum number of plane-waves:     12329
 maximum index in each direction: 
   IXMAX=    8   IYMAX=    8   IZMAX=   46
   IXMIN=   -8   IYMIN=   -8   IZMIN=  -46


 serial   3D FFT for wavefunctions
 parallel 3D FFT for charge:
    minimum data exchange during FFTs selected (reduces bandwidth)


 total amount of memory used by VASP MPI-rank0   362189. kBytes
=======================================================================

   base      :      30000. kBytes
   nonl-proj :     280273. kBytes
   fftplans  :       2015. kBytes
   grid      :       7641. kBytes
   one-center:        248. kBytes
   wavefun   :      42012. kBytes
 
     INWAV:  cpu time    0.0000: real time    0.0000
 Broyden mixing: mesh for mixing (old mesh)
   NGX = 17   NGY = 17   NGZ = 93
  (NGX  = 56   NGY  = 56   NGZ  =288)
  gives a total of  26877 points

 initial charge density was supplied:
 charge density of overlapping atoms calculated
 number of electron     160.0000000 magnetization 
 keeping initial charge density in first step


--------------------------------------------------------------------------------------------------------


 Maximum index for augmentation-charges          771 (set IRDMAX)


--------------------------------------------------------------------------------------------------------


 First call to EWALD:  gamma=   0.189
 Maximum number of real-space cells 5x 5x 1
 Maximum number of reciprocal cells 2x 2x 8

    FEWALD:  cpu time    0.0012: real time    0.0012


--------------------------------------- Iteration      1(   1)  ---------------------------------------


    POTLOK:  cpu time    0.0219: real time    0.0276
    SETDIJ:  cpu time    0.0024: real time    0.0025
     EDDAV:  cpu time   11.1031: real time   11.1132
       DOS:  cpu time    0.0026: real time    0.0027
    --------------------------------------------
      LOOP:  cpu time   11.1300: real time   11.1460

 eigenvalue-minimisations  :  9984
 total energy-change (2. order) : 0.9782482E+03  (-0.5548390E+04)
 number of electron     160.0000000 magnetization 
 augmentation part      160.0000000 magnetization 

 Free energy of the ion-electron system (eV)
  ---------------------------------------------------
  alpha Z        PSCENC =       303.52543553
  Ewald energy   TEWEN  =     97993.82862264
  -Hartree energ DENC   =   -110064.78898628
  -exchange      EXHF   =         0.00000000
  -V(xc)+E(xc)   XCENC  =        46.30325056
  PAW double counting   =     11171.21661038   -10711.84633960
  entropy T*S    EENTRO =         0.00413832
  eigenvalues    EBANDS =       546.31129797
  atomic energy  EATOM  =     11693.69420960
  Solvation  Ediel_sol  =         0.00000000
  ---------------------------------------------------
  free energy    TOTEN  =       978.24823912 eV

  energy without entropy =      978.24410080  energy(sigma->0) =      978.24685968


--------------------------------------------------------------------------------------------------------




--------------------------------------- Iteration      1(   2)  ---------------------------------------


     EDDAV:  cpu time   15.0005: real time   15.0015
       DOS:  cpu time    0.0015: real time    0.0015
    --------------------------------------------
      LOOP:  cpu time   15.0020: real time   15.0029

 eigenvalue-minimisations  : 14616
 total energy-change (2. order) :-0.1017748E+04  (-0.9868250E+03)
 number of electron     160.0000000 magnetization 
 augmentation part      160.0000000 magnetization 

 Free energy of the ion-electron system (eV)
  ---------------------------------------------------
  alpha Z        PSCENC =       303.52543553
  Ewald energy   TEWEN  =     97993.82862264
  -Hartree energ DENC   =   -110064.78898628
  -exchange      EXHF   =         0.00000000
  -V(xc)+E(xc)   XCENC  =        46.30325056
  PAW double counting   =     11171.21661038   -10711.84633960
  entropy T*S    EENTRO =        -0.00224155
  eigenvalues    EBANDS =      -471.42988579
  atomic energy  EATOM  =     11693.69420960
  Solvation  Ediel_sol  =         0.00000000
  ---------------------------------------------------
  free energy    TOTEN  =       -39.49932452 eV

  energy without entropy =      -39.49708296  energy(sigma->0) =      -39.49857733


--------------------------------------------------------------------------------------------------------




--------------------------------------- Iteration      1(   3)  ---------------------------------------


     EDDAV:  cpu time   13.1110: real time   13.1200
       DOS:  cpu time    0.0016: real time    0.0016
    --------------------------------------------
      LOOP:  cpu time   13.1125: real time   13.1216

 eigenvalue-minimisations  : 12480
 total energy-change (2. order) :-0.5800581E+02  (-0.5626446E+02)
 number of electron     160.0000000 magnetization 
 augmentation part      160.0000000 magnetization 

 Free energy of the ion-electron system (eV)
  ---------------------------------------------------
  alpha Z        PSCENC =       303.52543553
  Ewald energy   TEWEN  =     97993.82862264
  -Hartree energ DENC   =   -110064.78898628
  -exchange      EXHF   =         0.00000000
  -V(xc)+E(xc)   XCENC  =        46.30325056
  PAW double counting   =     11171.21661038   -10711.84633960
  entropy T*S    EENTRO =        -0.01449321
  eigenvalues    EBANDS =      -529.42344606
  atomic energy  EATOM  =     11693.69420960
  Solvation  Ediel_sol  =         0.00000000
  ---------------------------------------------------
  free energy    TOTEN  =       -97.50513645 eV

  energy without entropy =      -97.49064324  energy(sigma->0) =      -97.50030538


--------------------------------------------------------------------------------------------------------




--------------------------------------- Iteration      1(   4)  ---------------------------------------


     EDDAV:  cpu time   14.6624: real time   14.6708
       DOS:  cpu time    0.0016: real time    0.0016
    --------------------------------------------
      LOOP:  cpu time   14.6640: real time   14.6723

 eigenvalue-minimisations  : 14328
 total energy-change (2. order) :-0.1216065E+01  (-0.1210138E+01)
 number of electron     160.0000000 magnetization 
 augmentation part      160.0000000 magnetization 

 Free energy of the ion-electron system (eV)
  ---------------------------------------------------
  alpha Z        PSCENC =       303.52543553
  Ewald energy   TEWEN  =     97993.82862264
  -Hartree energ DENC   =   -110064.78898628
  -exchange      EXHF   =         0.00000000
  -V(xc)+E(xc)   XCENC  =        46.30325056
  PAW double counting   =     11171.21661038   -10711.84633960
  entropy T*S    EENTRO =        -0.01425104
  eigenvalues    EBANDS =      -530.63975344
  atomic energy  EATOM  =     11693.69420960
  Solvation  Ediel_sol  =         0.00000000
  ---------------------------------------------------
  free energy    TOTEN  =       -98.72120166 eV

  energy without entropy =      -98.70695062  energy(sigma->0) =      -98.71645131


--------------------------------------------------------------------------------------------------------




--------------------------------------- Iteration      1(   5)  ---------------------------------------


     EDDAV:  cpu time   15.3346: real time   15.3454
       DOS:  cpu time    0.0015: real time    0.0015
    CHARGE:  cpu time    0.3381: real time    0.3381
    MIXING:  cpu time    0.0010: real time    0.0011
    --------------------------------------------
      LOOP:  cpu time   15.6752: real time   15.6861

 eigenvalue-minimisations  : 15024
 total energy-change (2. order) :-0.3106667E-01  (-0.3103248E-01)
 number of electron     160.0000114 magnetization 
 augmentation part       46.9815588 magnetization 

 Broyden mixing:
  rms(total) = 0.41753E+01    rms(broyden)= 0.41752E+01
  rms(prec ) = 0.42045E+01
  weight for this iteration     100.00

 Free energy of the ion-electron system (eV)
  ---------------------------------------------------
  alpha Z        PSCENC =       303.52543553
  Ewald energy   TEWEN  =     97993.82862264
  -Hartree energ DENC   =   -110064.78898628
  -exchange      EXHF   =         0.00000000
  -V(xc)+E(xc)   XCENC  =        46.30325056
  PAW double counting   =     11171.21661038   -10711.84633960
  entropy T*S    EENTRO =        -0.01425788
  eigenvalues    EBANDS =      -530.67081327
  atomic energy  EATOM  =     11693.69420960
  Solvation  Ediel_sol  =         0.00000000
  ---------------------------------------------------
  free energy    TOTEN  =       -98.75226833 eV

  energy without entropy =      -98.73801045  energy(sigma->0) =      -98.74751570


--------------------------------------------------------------------------------------------------------




--------------------------------------- Iteration      1(   6)  ---------------------------------------


    POTLOK:  cpu time    0.0187: real time    0.0191
    SETDIJ:  cpu time    0.0023: real time    0.0023
     EDDAV:  cpu time   12.8804: real time   12.8811
       DOS:  cpu time    0.0015: real time    0.0015
    CHARGE:  cpu time    0.3506: real time    0.3506
    MIXING:  cpu time    0.0009: real time    0.0009
    --------------------------------------------
      LOOP:  cpu time   13.2544: real time   13.2556

 eigenvalue-minimisations  : 12216
 total energy-change (2. order) : 0.3994597E+01  (-0.2998612E+01)
 number of electron     160.0000109 magnetization 
 augmentation part       49.5791003 magnetization 

 Broyden mixing:
  rms(total) = 0.29483E+01    rms(broyden)= 0.29482E+01
  rms(prec ) = 0.30384E+01
  weight for this iteration     100.00

 eigenvalues of (default mixing * dielectric matrix)
  average eigenvalue GAMMA=   1.3517
  1.3517

 Free energy of the ion-electron system (eV)
  ---------------------------------------------------
  alpha Z        PSCENC =       303.52543553
  Ewald energy   TEWEN  =     97993.82862264
  -Hartree energ DENC   =   -109878.21342769
  -exchange      EXHF   =         0.00000000
  -V(xc)+E(xc)   XCENC  =        42.21793626
  PAW double counting   =     12328.72665557   -11892.50364903
  entropy T*S    EENTRO =        -0.03980773
  eigenvalues    EBANDS =      -685.99364616
  atomic energy  EATOM  =     11693.69420960
  Solvation  Ediel_sol  =         0.00000000
  ---------------------------------------------------
  free energy    TOTEN  =       -94.75767102 eV

  energy without entropy =      -94.71786330  energy(sigma->0) =      -94.74440178


--------------------------------------------------------------------------------------------------------




--------------------------------------- Iteration      1(   7)  ---------------------------------------


    POTLOK:  cpu time    0.0169: real time    0.0170
    SETDIJ:  cpu time    0.0024: real time    0.0024
     EDDAV:  cpu time   14.2883: real time   14.2909
       DOS:  cpu time    0.0016: real time    0.0016
    CHARGE:  cpu time    0.3376: real time    0.3376
    MIXING:  cpu time    0.0009: real time    0.0009
    --------------------------------------------
      LOOP:  cpu time   14.6477: real time   14.6504

 eigenvalue-minimisations  : 13752
 total energy-change (2. order) :-0.2556135E+02  (-0.1806076E+02)
 number of electron     160.0000129 magnetization 
 augmentation part       48.6744502 magnetization 

 Broyden mixing:
  rms(total) = 0.44192E+01    rms(broyden)= 0.44191E+01
  rms(prec ) = 0.49028E+01
  weight for this iteration     100.00

 eigenvalues of (default mixing * dielectric matrix)
  average eigenvalue GAMMA=   1.1803
  2.1008  0.2597

 Free energy of the ion-electron system (eV)
  ---------------------------------------------------
  alpha Z        PSCENC =       303.52543553
  Ewald energy   TEWEN  =     97993.82862264
  -Hartree energ DENC   =   -110048.19273827
  -exchange      EXHF   =         0.00000000
  -V(xc)+E(xc)   XCENC  =        40.65908800
  PAW double counting   =     13227.25702628   -12802.15739446
  entropy T*S    EENTRO =        -0.01105064
  eigenvalues    EBANDS =      -528.92221706
  atomic energy  EATOM  =     11693.69420960
  Solvation  Ediel_sol  =         0.00000000
  ---------------------------------------------------
  free energy    TOTEN  =      -120.31901838 eV

  energy without entropy =     -120.30796775  energy(sigma->0) =     -120.31533484


--------------------------------------------------------------------------------------------------------




--------------------------------------- Iteration      1(   8)  ---------------------------------------


    POTLOK:  cpu time    0.0176: real time    0.0225
    SETDIJ:  cpu time    0.0023: real time    0.0023
     EDDAV:  cpu time   15.7048: real time   15.7056
       DOS:  cpu time    0.0015: real time    0.0015
    CHARGE:  cpu time    0.3464: real time    0.3464
    MIXING:  cpu time    0.0010: real time    0.0010
    --------------------------------------------
      LOOP:  cpu time   16.0735: real time   16.0793

 eigenvalue-minimisations  : 15336
 total energy-change (2. order) : 0.2382813E+02  (-0.5873108E+01)
 number of electron     160.0000131 magnetization 
 augmentation part       50.4004889 magnetization 

 Broyden mixing:
  rms(total) = 0.18642E+01    rms(broyden)= 0.18642E+01
  rms(prec ) = 0.20998E+01
  weight for this iteration     100.00

 eigenvalues of (default mixing * dielectric matrix)
  average eigenvalue GAMMA=   0.9841
  2.1027  0.4741  0.3755

 Free energy of the ion-electron system (eV)
  ---------------------------------------------------
  alpha Z        PSCENC =       303.52543553
  Ewald energy   TEWEN  =     97993.82862264
  -Hartree energ DENC   =   -109893.69271172
  -exchange      EXHF   =         0.00000000
  -V(xc)+E(xc)   XCENC  =        39.94555206
  PAW double counting   =     14047.83813323   -13633.33941222
  entropy T*S    EENTRO =         0.00898804
  eigenvalues    EBANDS =      -648.29970674
  atomic energy  EATOM  =     11693.69420960
  Solvation  Ediel_sol  =         0.00000000
  ---------------------------------------------------
  free energy    TOTEN  =       -96.49088959 eV

  energy without entropy =      -96.49987763  energy(sigma->0) =      -96.49388561


--------------------------------------------------------------------------------------------------------




--------------------------------------- Iteration      1(   9)  ---------------------------------------


    POTLOK:  cpu time    0.0176: real time    0.0179
    SETDIJ:  cpu time    0.0023: real time    0.0023
     EDDAV:  cpu time   13.6834: real time   13.6850
       DOS:  cpu time    0.0016: real time    0.0016
    CHARGE:  cpu time    0.3386: real time    0.3387
    MIXING:  cpu time    0.0008: real time    0.0008
    --------------------------------------------
      LOOP:  cpu time   14.0444: real time   14.0463

 eigenvalue-minimisations  : 12912
 total energy-change (2. order) :-0.8138227E+01  (-0.8651018E+01)
 number of electron     160.0000114 magnetization 
 augmentation part       50.1079989 magnetization 

 Broyden mixing:
  rms(total) = 0.30080E+01    rms(broyden)= 0.30078E+01
  rms(prec ) = 0.39520E+01
  weight for this iteration     100.00

 eigenvalues of (default mixing * dielectric matrix)
  average eigenvalue GAMMA=   0.8705
  2.1489  0.8656  0.3128  0.1546

 Free energy of the ion-electron system (eV)
  ---------------------------------------------------
  alpha Z        PSCENC =       303.52543553
  Ewald energy   TEWEN  =     97993.82862264
  -Hartree energ DENC   =   -109880.54692388
  -exchange      EXHF   =         0.00000000
  -V(xc)+E(xc)   XCENC  =        40.34045549
  PAW double counting   =     14166.02573262   -13750.91859066
  entropy T*S    EENTRO =         0.02060548
  eigenvalues    EBANDS =      -670.59866347
  atomic energy  EATOM  =     11693.69420960
  Solvation  Ediel_sol  =         0.00000000
  ---------------------------------------------------
  free energy    TOTEN  =      -104.62911665 eV

  energy without entropy =     -104.64972213  energy(sigma->0) =     -104.63598514


--------------------------------------------------------------------------------------------------------




--------------------------------------- Iteration      1(  10)  ---------------------------------------


    POTLOK:  cpu time    0.0183: real time    0.0210
    SETDIJ:  cpu time    0.0022: real time    0.0022
     EDDAV:  cpu time   15.1514: real time   15.1548
       DOS:  cpu time    0.0015: real time    0.0015
    CHARGE:  cpu time    0.3393: real time    0.3393
    MIXING:  cpu time    0.0009: real time    0.0009
    --------------------------------------------
      LOOP:  cpu time   15.5136: real time   15.5197

 eigenvalue-minimisations  : 14472
 total energy-change (2. order) : 0.8646533E+01  (-0.6403667E+01)
 number of electron     160.0000112 magnetization 
 augmentation part       50.2005885 magnetization 

 Broyden mixing:
  rms(total) = 0.17672E+01    rms(broyden)= 0.17670E+01
  rms(prec ) = 0.21634E+01
  weight for this iteration     100.00

 eigenvalues of (default mixing * dielectric matrix)
  average eigenvalue GAMMA=   0.7557
  2.2155  0.9056  0.2720  0.2720  0.1133

 Free energy of the ion-electron system (eV)
  ---------------------------------------------------
  alpha Z        PSCENC =       303.52543553
  Ewald energy   TEWEN  =     97993.82862264
  -Hartree energ DENC   =   -109884.94781315
  -exchange      EXHF   =         0.00000000
  -V(xc)+E(xc)   XCENC  =        40.46352034
  PAW double counting   =     14285.76372985   -13870.62355924
  entropy T*S    EENTRO =        -0.01638231
  eigenvalues    EBANDS =      -657.67034735
  atomic energy  EATOM  =     11693.69420960
  Solvation  Ediel_sol  =         0.00000000
  ---------------------------------------------------
  free energy    TOTEN  =       -95.98258410 eV

  energy without entropy =      -95.96620178  energy(sigma->0) =      -95.97712332


--------------------------------------------------------------------------------------------------------




--------------------------------------- Iteration      1(  11)  ---------------------------------------


    POTLOK:  cpu time    0.0172: real time    0.0186
    SETDIJ:  cpu time    0.0023: real time    0.0023
     EDDAV:  cpu time   13.5223: real time   13.5229
       DOS:  cpu time    0.0016: real time    0.0016
    CHARGE:  cpu time    0.3672: real time    0.3672
    MIXING:  cpu time    0.0011: real time    0.0011
    --------------------------------------------
      LOOP:  cpu time   13.9117: real time   13.9137

 eigenvalue-minimisations  : 12720
 total energy-change (2. order) : 0.3262620E+01  (-0.1536867E+01)
 number of electron     160.0000116 magnetization 
 augmentation part       50.1671817 magnetization 

 Broyden mixing:
  rms(total) = 0.57227E+00    rms(broyden)= 0.57217E+00
  rms(prec ) = 0.59692E+00
  weight for this iteration     100.00

 eigenvalues of (default mixing * dielectric matrix)
  average eigenvalue GAMMA=   0.7127
  2.0346  0.7307  0.7307  0.3324  0.3324  0.1155

 Free energy of the ion-electron system (eV)
  ---------------------------------------------------
  alpha Z        PSCENC =       303.52543553
  Ewald energy   TEWEN  =     97993.82862264
  -Hartree energ DENC   =   -109887.57103824
  -exchange      EXHF   =         0.00000000
  -V(xc)+E(xc)   XCENC  =        40.49281893
  PAW double counting   =     14364.06202766   -13949.40573042
  entropy T*S    EENTRO =        -0.01692749
  eigenvalues    EBANDS =      -651.32938274
  atomic energy  EATOM  =     11693.69420960
  Solvation  Ediel_sol  =         0.00000000
  ---------------------------------------------------
  free energy    TOTEN  =       -92.71996454 eV

  energy without entropy =      -92.70303705  energy(sigma->0) =      -92.71432204


--------------------------------------------------------------------------------------------------------




--------------------------------------- Iteration      1(  12)  ---------------------------------------


    POTLOK:  cpu time    0.0180: real time    0.0186
    SETDIJ:  cpu time    0.0023: real time    0.0023
     EDDAV:  cpu time   13.6411: real time   13.6428
       DOS:  cpu time    0.0016: real time    0.0016
    CHARGE:  cpu time    0.3706: real time    0.3707
    MIXING:  cpu time    0.0011: real time    0.0011
    --------------------------------------------
      LOOP:  cpu time   14.0346: real time   14.0372

 eigenvalue-minimisations  : 12864
 total energy-change (2. order) :-0.1248573E+00  (-0.3694830E+00)
 number of electron     160.0000117 magnetization 
 augmentation part       50.1451551 magnetization 

 Broyden mixing:
  rms(total) = 0.71650E+00    rms(broyden)= 0.71645E+00
  rms(prec ) = 0.85445E+00
  weight for this iteration     100.00

 eigenvalues of (default mixing * dielectric matrix)
  average eigenvalue GAMMA=   0.6952
  2.1137  0.9655  0.5426  0.5426  0.2944  0.2944  0.1135

 Free energy of the ion-electron system (eV)
  ---------------------------------------------------
  alpha Z        PSCENC =       303.52543553
  Ewald energy   TEWEN  =     97993.82862264
  -Hartree energ DENC   =   -109882.34109803
  -exchange      EXHF   =         0.00000000
  -V(xc)+E(xc)   XCENC  =        40.62666721
  PAW double counting   =     14270.78193477   -13855.38327495
  entropy T*S    EENTRO =        -0.03704197
  eigenvalues    EBANDS =      -657.54027665
  atomic energy  EATOM  =     11693.69420960
  Solvation  Ediel_sol  =         0.00000000
  ---------------------------------------------------
  free energy    TOTEN  =       -92.84482186 eV

  energy without entropy =      -92.80777989  energy(sigma->0) =      -92.83247453


--------------------------------------------------------------------------------------------------------




--------------------------------------- Iteration      1(  13)  ---------------------------------------


    POTLOK:  cpu time    0.0192: real time    0.0231
    SETDIJ:  cpu time    0.0024: real time    0.0024
     EDDAV:  cpu time   13.3089: real time   13.3151
       DOS:  cpu time    0.0016: real time    0.0016
    CHARGE:  cpu time    0.3809: real time    0.3809
    MIXING:  cpu time    0.0011: real time    0.0011
    --------------------------------------------
      LOOP:  cpu time   13.7141: real time   13.7241

 eigenvalue-minimisations  : 12432
 total energy-change (2. order) : 0.2771898E+00  (-0.2498300E+00)
 number of electron     160.0000117 magnetization 
 augmentation part       50.1388288 magnetization 

 Broyden mixing:
  rms(total) = 0.38485E+00    rms(broyden)= 0.38482E+00
  rms(prec ) = 0.43544E+00
  weight for this iteration     100.00

 eigenvalues of (default mixing * dielectric matrix)
  average eigenvalue GAMMA=   0.7101
  2.2492  0.9837  0.7216  0.7216  0.3150  0.3150  0.2607  0.1138

 Free energy of the ion-electron system (eV)
  ---------------------------------------------------
  alpha Z        PSCENC =       303.52543553
  Ewald energy   TEWEN  =     97993.82862264
  -Hartree energ DENC   =   -109883.34998598
  -exchange      EXHF   =         0.00000000
  -V(xc)+E(xc)   XCENC  =        40.57918940
  PAW double counting   =     14294.54253176   -13879.53586981
  entropy T*S    EENTRO =        -0.01471961
  eigenvalues    EBANDS =      -655.83704556
  atomic energy  EATOM  =     11693.69420960
  Solvation  Ediel_sol  =         0.00000000
  ---------------------------------------------------
  free energy    TOTEN  =       -92.56763204 eV

  energy without entropy =      -92.55291243  energy(sigma->0) =      -92.56272550


--------------------------------------------------------------------------------------------------------




--------------------------------------- Iteration      1(  14)  ---------------------------------------


    POTLOK:  cpu time    0.0182: real time    0.0184
    SETDIJ:  cpu time    0.0022: real time    0.0022
     EDDAV:  cpu time   14.4186: real time   14.4193
       DOS:  cpu time    0.0016: real time    0.0016
    CHARGE:  cpu time    0.3735: real time    0.3735
    MIXING:  cpu time    0.0011: real time    0.0011
    --------------------------------------------
      LOOP:  cpu time   14.8152: real time   14.8160

 eigenvalue-minimisations  : 13704
 total energy-change (2. order) : 0.6289223E-01  (-0.9095523E-01)
 number of electron     160.0000119 magnetization 
 augmentation part       50.1146323 magnetization 

 Broyden mixing:
  rms(total) = 0.22990E+00    rms(broyden)= 0.22985E+00
  rms(prec ) = 0.24108E+00
  weight for this iteration     100.00

 eigenvalues of (default mixing * dielectric matrix)
  average eigenvalue GAMMA=   0.7209
  2.2844  1.1055  0.8881  0.8881  0.3798  0.2933  0.2933  0.1138  0.2420

 Free energy of the ion-electron system (eV)
  ---------------------------------------------------
  alpha Z        PSCENC =       303.52543553
  Ewald energy   TEWEN  =     97993.82862264
  -Hartree energ DENC   =   -109889.14857206
  -exchange      EXHF   =         0.00000000
  -V(xc)+E(xc)   XCENC  =        40.55833458
  PAW double counting   =     14309.45690165   -13894.83782856
  entropy T*S    EENTRO =        -0.02689176
  eigenvalues    EBANDS =      -649.55495143
  atomic energy  EATOM  =     11693.69420960
  Solvation  Ediel_sol  =         0.00000000
  ---------------------------------------------------
  free energy    TOTEN  =       -92.50473981 eV

  energy without entropy =      -92.47784805  energy(sigma->0) =      -92.49577589


--------------------------------------------------------------------------------------------------------




--------------------------------------- Iteration      1(  15)  ---------------------------------------


    POTLOK:  cpu time    0.0172: real time    0.0199
    SETDIJ:  cpu time    0.0023: real time    0.0023
     EDDAV:  cpu time   14.9708: real time   14.9724
       DOS:  cpu time    0.0015: real time    0.0015
    CHARGE:  cpu time    0.3721: real time    0.3721
    MIXING:  cpu time    0.0014: real time    0.0014
    --------------------------------------------
      LOOP:  cpu time   15.3653: real time   15.3696

 eigenvalue-minimisations  : 14304
 total energy-change (2. order) :-0.8580397E-02  (-0.2608580E-01)
 number of electron     160.0000119 magnetization 
 augmentation part       50.1017655 magnetization 

 Broyden mixing:
  rms(total) = 0.23659E+00    rms(broyden)= 0.23658E+00
  rms(prec ) = 0.26979E+00
  weight for this iteration     100.00

 eigenvalues of (default mixing * dielectric matrix)
  average eigenvalue GAMMA=   0.6971
  2.2437  1.0773  1.0773  0.9153  0.4245  0.2993  0.2993  0.1138  0.2819  0.2391

 Free energy of the ion-electron system (eV)
  ---------------------------------------------------
  alpha Z        PSCENC =       303.52543553
  Ewald energy   TEWEN  =     97993.82862264
  -Hartree energ DENC   =   -109891.49339778
  -exchange      EXHF   =         0.00000000
  -V(xc)+E(xc)   XCENC  =        40.56377691
  PAW double counting   =     14284.98283247   -13870.38697678
  entropy T*S    EENTRO =        -0.02093778
  eigenvalues    EBANDS =      -647.20688500
  atomic energy  EATOM  =     11693.69420960
  Solvation  Ediel_sol  =         0.00000000
  ---------------------------------------------------
  free energy    TOTEN  =       -92.51332021 eV

  energy without entropy =      -92.49238242  energy(sigma->0) =      -92.50634095


--------------------------------------------------------------------------------------------------------




--------------------------------------- Iteration      1(  16)  ---------------------------------------


    POTLOK:  cpu time    0.0188: real time    0.0192
    SETDIJ:  cpu time    0.0023: real time    0.0023
     EDDAV:  cpu time   14.5070: real time   14.5076
       DOS:  cpu time    0.0015: real time    0.0015
    CHARGE:  cpu time    0.3726: real time    0.3726
    MIXING:  cpu time    0.0015: real time    0.0015
    --------------------------------------------
      LOOP:  cpu time   14.9037: real time   14.9046

 eigenvalue-minimisations  : 13440
 total energy-change (2. order) : 0.1527591E-01  (-0.2725713E-02)
 number of electron     160.0000119 magnetization 
 augmentation part       50.0931638 magnetization 

 Broyden mixing:
  rms(total) = 0.18871E+00    rms(broyden)= 0.18871E+00
  rms(prec ) = 0.21276E+00
  weight for this iteration     100.00

 eigenvalues of (default mixing * dielectric matrix)
  average eigenvalue GAMMA=   0.7756
  2.0675  2.0675  1.2977  0.6020  0.6020  0.5988  0.1138  0.3084  0.3084  0.3345
  0.2312

 Free energy of the ion-electron system (eV)
  ---------------------------------------------------
  alpha Z        PSCENC =       303.52543553
  Ewald energy   TEWEN  =     97993.82862264
  -Hartree energ DENC   =   -109892.82950676
  -exchange      EXHF   =         0.00000000
  -V(xc)+E(xc)   XCENC  =        40.59246077
  PAW double counting   =     14254.94840237   -13840.21555372
  entropy T*S    EENTRO =        -0.02233509
  eigenvalues    EBANDS =      -646.01977961
  atomic energy  EATOM  =     11693.69420960
  Solvation  Ediel_sol  =         0.00000000
  ---------------------------------------------------
  free energy    TOTEN  =       -92.49804430 eV

  energy without entropy =      -92.47570920  energy(sigma->0) =      -92.49059926


--------------------------------------------------------------------------------------------------------




--------------------------------------- Iteration      1(  17)  ---------------------------------------


    POTLOK:  cpu time    0.0178: real time    0.0181
    SETDIJ:  cpu time    0.0023: real time    0.0023
     EDDAV:  cpu time   13.0598: real time   13.0626
       DOS:  cpu time    0.0016: real time    0.0016
    CHARGE:  cpu time    0.3724: real time    0.3724
    MIXING:  cpu time    0.0014: real time    0.0014
    --------------------------------------------
      LOOP:  cpu time   13.4553: real time   13.4584

 eigenvalue-minimisations  : 12096
 total energy-change (2. order) : 0.2087128E-01  (-0.7003592E-02)
 number of electron     160.0000119 magnetization 
 augmentation part       50.0912280 magnetization 

 Broyden mixing:
  rms(total) = 0.99701E-01    rms(broyden)= 0.99693E-01
  rms(prec ) = 0.11054E+00
  weight for this iteration     100.00

 eigenvalues of (default mixing * dielectric matrix)
  average eigenvalue GAMMA=   0.7899
  2.2045  2.2045  1.4019  0.6709  0.6709  0.6913  0.1138  0.3046  0.3046  0.3626
  0.3171  0.2315

 Free energy of the ion-electron system (eV)
  ---------------------------------------------------
  alpha Z        PSCENC =       303.52543553
  Ewald energy   TEWEN  =     97993.82862264
  -Hartree energ DENC   =   -109893.99919034
  -exchange      EXHF   =         0.00000000
  -V(xc)+E(xc)   XCENC  =        40.63129374
  PAW double counting   =     14207.17658993   -13792.25890978
  entropy T*S    EENTRO =        -0.02293223
  eigenvalues    EBANDS =      -645.05229210
  atomic energy  EATOM  =     11693.69420960
  Solvation  Ediel_sol  =         0.00000000
  ---------------------------------------------------
  free energy    TOTEN  =       -92.47717302 eV

  energy without entropy =      -92.45424079  energy(sigma->0) =      -92.46952894


--------------------------------------------------------------------------------------------------------




--------------------------------------- Iteration      1(  18)  ---------------------------------------


    POTLOK:  cpu time    0.0186: real time    0.0256
    SETDIJ:  cpu time    0.0022: real time    0.0022
     EDDAV:  cpu time   14.9649: real time   14.9654
       DOS:  cpu time    0.0015: real time    0.0015
    CHARGE:  cpu time    0.3703: real time    0.3703
    MIXING:  cpu time    0.0014: real time    0.0014
    --------------------------------------------
      LOOP:  cpu time   15.3589: real time   15.3665

 eigenvalue-minimisations  : 14328
 total energy-change (2. order) : 0.8285834E-02  (-0.2179980E-02)
 number of electron     160.0000118 magnetization 
 augmentation part       50.0914575 magnetization 

 Broyden mixing:
  rms(total) = 0.54125E-01    rms(broyden)= 0.54121E-01
  rms(prec ) = 0.58021E-01
  weight for this iteration     100.00

 eigenvalues of (default mixing * dielectric matrix)
  average eigenvalue GAMMA=   0.7967
  2.2346  2.2346  1.4563  0.7706  0.7706  0.6282  0.6282  0.1138  0.3072  0.3072
  0.3379  0.3379  0.2305

 Free energy of the ion-electron system (eV)
  ---------------------------------------------------
  alpha Z        PSCENC =       303.52543553
  Ewald energy   TEWEN  =     97993.82862264
  -Hartree energ DENC   =   -109894.74680937
  -exchange      EXHF   =         0.00000000
  -V(xc)+E(xc)   XCENC  =        40.64938243
  PAW double counting   =     14195.82823743   -13780.86862250
  entropy T*S    EENTRO =        -0.02233363
  eigenvalues    EBANDS =      -644.35700930
  atomic energy  EATOM  =     11693.69420960
  Solvation  Ediel_sol  =         0.00000000
  ---------------------------------------------------
  free energy    TOTEN  =       -92.46888718 eV

[...]
     80      -0.8183      1.19572
     81      -0.7614      0.72017
     82      -0.7070      0.32911
     83      -0.6142     -0.02415
     84      -0.4905     -0.05329
     85      -0.3688     -0.01025
     86      -0.2826     -0.00175
     87       1.1617     -0.00000
     88       1.2500     -0.00000
     89       1.2695     -0.00000
     90       1.7346     -0.00000
     91       1.7853     -0.00000
     92       1.7998     -0.00000
     93       2.7678     -0.00000
     94       2.8724     -0.00000
     95       3.2868     -0.00000
     96       4.3744     -0.00000

 k-point    51 :      -0.4375    0.4375    0.0000
  band No.  band energies     occupation 
      1      -8.2982      2.00000
      2      -8.2843      2.00000
      3      -7.3055      2.00000
      4      -7.2465      2.00000
      5      -6.8277      2.00000
      6      -6.5735      2.00000
      7      -6.5042      2.00000
      8      -6.4455      2.00000
      9      -6.3407      2.00000
     10      -6.2580      2.00000
     11      -6.1937      2.00000
     12      -6.1387      2.00000
     13      -6.1275      2.00000
     14      -5.9372      2.00000
     15      -5.7976      2.00000
     16      -5.7024      2.00000
     17      -5.6851      2.00000
     18      -5.6580      2.00000
     19      -5.5353      2.00000
     20      -5.4387      2.00000
     21      -5.3533      2.00000
     22      -5.2754      2.00000
     23      -5.2578      2.00000
     24      -5.2065      2.00000
     25      -5.1348      2.00000
     26      -5.0802      2.00000
     27      -5.0425      2.00000
     28      -4.9989      2.00000
     29      -4.7534      2.00000
     30      -4.7278      2.00000
     31      -4.6402      2.00000
     32      -4.5931      2.00000
     33      -4.5539      2.00000
     34      -4.4672      2.00000
     35      -4.4362      2.00000
     36      -4.3032      2.00000
     37      -4.2322      2.00000
     38      -4.1564      2.00000
     39      -4.1143      2.00000
     40      -4.0864      2.00000
     41      -4.0673      2.00000
     42      -3.9433      2.00000
     43      -3.8329      2.00000
     44      -3.7095      2.00000
     45      -3.6946      2.00000
     46      -3.6825      2.00000
     47      -3.6428      2.00000
     48      -3.6056      2.00000
     49      -3.5963      2.00000
     50      -3.5410      2.00000
     51      -3.3904      2.00000
     52      -3.2745      2.00000
     53      -3.1535      2.00000
     54      -2.9834      2.00000
     55      -2.9330      2.00000
     56      -2.8818      2.00000
     57      -2.8586      2.00000
     58      -2.7930      2.00000
     59      -2.6659      2.00000
     60      -2.5582      2.00000
     61      -2.5293      2.00000
     62      -2.4263      2.00000
     63      -2.3594      2.00000
     64      -2.3254      2.00000
     65      -2.2081      2.00000
     66      -2.1856      2.00000
     67      -2.1314      2.00000
     68      -2.0857      2.00000
     69      -2.0236      2.00000
     70      -1.9316      2.00000
     71      -1.9037      2.00000
     72      -1.7867      2.00000
     73      -1.7050      2.00000
     74      -1.6563      2.00000
     75      -1.4515      2.00004
     76      -1.3504      2.00062
     77      -1.2807      2.00317
     78      -1.1207      2.04347
     79      -0.9824      2.03462
     80      -0.9501      1.96698
     81      -0.7725      0.81145
     82      -0.7505      0.63367
     83      -0.6919      0.24339
     84      -0.4690     -0.04340
     85      -0.4144     -0.02162
     86      -0.3363     -0.00554
     87       0.2441     -0.00000
     88       0.4533     -0.00000
     89       1.4328     -0.00000
     90       1.5251     -0.00000
     91       1.6200     -0.00000
     92       2.3943     -0.00000
     93       3.1329     -0.00000
     94       3.4444     -0.00000
     95       3.9718     -0.00000
     96       3.9887     -0.00000

 k-point    52 :       0.1250   -0.4375    0.0000
  band No.  band energies     occupation 
      1      -8.3083      2.00000
      2      -8.2744      2.00000
      3      -7.3066      2.00000
      4      -7.2460      2.00000
      5      -6.8282      2.00000
      6      -6.5825      2.00000
      7      -6.4990      2.00000
      8      -6.4437      2.00000
      9      -6.3446      2.00000
     10      -6.2595      2.00000
     11      -6.1997      2.00000
     12      -6.1302      2.00000
     13      -6.1199      2.00000
     14      -5.9382      2.00000
     15      -5.7856      2.00000
     16      -5.6985      2.00000
     17      -5.6867      2.00000
     18      -5.6717      2.00000
     19      -5.5530      2.00000
     20      -5.4156      2.00000
     21      -5.3180      2.00000
     22      -5.2887      2.00000
     23      -5.2645      2.00000
     24      -5.1973      2.00000
     25      -5.1353      2.00000
     26      -5.0855      2.00000
     27      -5.0689      2.00000
     28      -4.9666      2.00000
     29      -4.8073      2.00000
     30      -4.7157      2.00000
     31      -4.6660      2.00000
     32      -4.6011      2.00000
     33      -4.5585      2.00000
     34      -4.4372      2.00000
     35      -4.4033      2.00000
     36      -4.3156      2.00000
     37      -4.2198      2.00000
     38      -4.1594      2.00000
     39      -4.1074      2.00000
     40      -4.0889      2.00000
     41      -4.0761      2.00000
     42      -3.9319      2.00000
     43      -3.8367      2.00000
     44      -3.7115      2.00000
     45      -3.7013      2.00000
     46      -3.6771      2.00000
     47      -3.6412      2.00000
     48      -3.6304      2.00000
     49      -3.5758      2.00000
     50      -3.5461      2.00000
     51      -3.3932      2.00000
     52      -3.2907      2.00000
     53      -3.1293      2.00000
     54      -2.9957      2.00000
     55      -2.9480      2.00000
     56      -2.8755      2.00000
     57      -2.8572      2.00000
     58      -2.7921      2.00000
     59      -2.6081      2.00000
     60      -2.5561      2.00000
     61      -2.5043      2.00000
     62      -2.4877      2.00000
     63      -2.4219      2.00000
     64      -2.3066      2.00000
     65      -2.1894      2.00000
     66      -2.1622      2.00000
     67      -2.1375      2.00000
     68      -2.0962      2.00000
     69      -1.9570      2.00000
     70      -1.9399      2.00000
     71      -1.9113      2.00000
     72      -1.8194      2.00000
     73      -1.7569      2.00000
     74      -1.6427      2.00000
     75      -1.4629      2.00002
     76      -1.3149      2.00147
     77      -1.2757      2.00352
     78      -1.1499      2.03084
     79      -0.9695      2.01281
     80      -0.8816      1.66245
     81      -0.8704      1.59079
     82      -0.7525      0.64975
     83      -0.6295      0.00659
     84      -0.4835     -0.05006
     85      -0.4350     -0.02888
     86      -0.3287     -0.00475
     87       0.2513     -0.00000
     88       0.4533     -0.00000
     89       1.4295     -0.00000
     90       1.5636     -0.00000
     91       1.5869     -0.00000
     92       2.3990     -0.00000
     93       3.1244     -0.00000
     94       3.4460     -0.00000
     95       3.9436     -0.00000
     96       4.0160     -0.00000


--------------------------------------------------------------------------------------------------------


 soft charge-density along one line, spin component           1
         0         1         2         3         4         5         6         7         8         9
 total charge-density along one line
 
 pseudopotential strength for first ion, spin component:           1
 -8.071   0.000   0.000  -0.007   0.000  -8.216   0.000   0.000
  0.000  -7.993  -0.000  -0.000  -0.005   0.000  -8.141  -0.000
  0.000  -0.000  -7.983   0.000  -0.001   0.000  -0.000  -8.131
 -0.007  -0.000   0.000  -7.993  -0.000  -0.007  -0.000   0.000
  0.000  -0.005  -0.001  -0.000  -8.070   0.000  -0.005  -0.001
 -8.216   0.000   0.000  -0.007   0.000  -8.346   0.000   0.000
  0.000  -8.141  -0.000  -0.000  -0.005   0.000  -8.272  -0.000
  0.000  -0.000  -8.131   0.000  -0.001   0.000  -0.000  -8.263
 -0.007  -0.000   0.000  -8.140  -0.000  -0.007  -0.000   0.000
  0.000  -0.005  -0.001  -0.000  -8.216   0.000  -0.005  -0.001
  0.000   0.000  -0.025  -0.000  -0.000   0.000   0.000  -0.025
  0.000   0.001  -0.036  -0.000  -0.000   0.000   0.001  -0.036
 -0.000  -0.001  -0.000  -0.000   0.000  -0.000  -0.000  -0.000
 -0.000   0.000  -0.003   0.000  -0.000  -0.000   0.000  -0.002
  0.000  -0.000   0.000  -0.001  -0.000   0.000  -0.000   0.000
 -0.000   0.001  -0.000  -0.000   0.000  -0.000   0.001  -0.000
 -0.000   0.000  -0.001   0.000  -0.000  -0.000   0.000  -0.001
  0.001  -0.000   0.000   0.001  -0.000   0.001  -0.000   0.000
 total augmentation occupancy for first ion, spin component:           1
  4.818   0.000   0.000  -0.039   0.000  -2.995   0.000   0.000  -0.050   0.000   0.000   0.000   0.000   0.000  -0.052   0.000
  0.000   4.877   0.006   0.000  -0.008   0.000  -2.600  -0.005   0.000  -0.071  -0.008   0.004  -0.230  -0.002   0.000   0.012
  0.000   0.006   5.527   0.000  -0.018   0.000  -0.005  -3.332   0.000   0.014   0.839  -0.069  -0.001  -0.390   0.000  -0.000
 -0.039   0.000   0.000   4.865   0.000  -0.048   0.000   0.000  -2.591   0.000   0.000   0.000   0.000   0.000  -0.230   0.000
  0.000  -0.008  -0.018   0.000   4.870   0.000  -0.073   0.014   0.000  -3.036  -0.002   0.002  -0.051   0.001   0.000   0.002
 -2.995   0.000   0.000  -0.048   0.000   3.034   0.000   0.000   0.117   0.000   0.000   0.000   0.000   0.000   0.048   0.000
  0.000  -2.600  -0.005   0.000  -0.073   0.000   2.285   0.004   0.000   0.134   0.005  -0.002   0.213   0.001   0.000  -0.010
  0.000  -0.005  -3.332   0.000   0.014   0.000   0.004   3.084   0.000  -0.011  -0.765   0.079   0.000   0.387   0.000  -0.000
 -0.050   0.000   0.000  -2.591   0.000   0.117   0.000   0.000   2.279   0.000   0.000   0.000   0.000   0.000   0.213   0.000
  0.000  -0.071   0.014   0.000  -3.036   0.000   0.134  -0.011   0.000   3.066   0.002  -0.002   0.047  -0.001   0.000  -0.002
  0.000  -0.008   0.839   0.000  -0.002   0.000   0.005  -0.765   0.000   0.002   2.565  -0.589   0.000   0.172   0.000   0.000
  0.000   0.004  -0.069   0.000   0.002   0.000  -0.002   0.079   0.000  -0.002  -0.589   0.175  -0.000  -0.079   0.000   0.000
  0.000  -0.230  -0.001   0.000  -0.051   0.000   0.213   0.000   0.000   0.047   0.000  -0.000   0.235  -0.000   0.000  -0.007
  0.000  -0.002  -0.390   0.000   0.001   0.000   0.001   0.387   0.000  -0.001   0.172  -0.079  -0.000   0.134   0.000  -0.000
 -0.052   0.000   0.000  -0.230   0.000   0.048   0.000   0.000   0.213   0.000   0.000   0.000   0.000   0.000   0.235   0.000
  0.000   0.012  -0.000   0.000   0.002   0.000  -0.010  -0.000   0.000  -0.002   0.000   0.000  -0.007  -0.000   0.000   0.000
  0.000   0.000   0.010   0.000  -0.000   0.000  -0.000  -0.011   0.000   0.000  -0.009   0.003  -0.000  -0.004   0.000   0.000
  0.002   0.000   0.000   0.012   0.000  -0.002   0.000   0.000  -0.010   0.000   0.000   0.000   0.000   0.000  -0.007   0.000


------------------------ aborting loop because EDIFF is reached ----------------------------------------



 DIPCOR: dipole corrections for dipol
 direction  3 min pos     2,
 dipolmoment           0.000000      0.000000      0.022737 electrons x Angstroem
 Tr[quadrupol]      -946.936097

 energy correction for charged system         0.000000 eV
 dipol+quadrupol energy correction            0.000057 eV
 added-field ion interaction          0.000000 eV  (added to PSCEN)

 
  *************** adding dipol energy to TOTEN NOW **************** 
    CHARGE:  cpu time    0.3640: real time    0.3640
    FORLOC:  cpu time    0.0033: real time    0.0033
    FORNL :  cpu time    4.5162: real time    4.5165
    STRESS:  cpu time   15.0442: real time   15.0450
    FORCOR:  cpu time    0.0203: real time    0.0203
    FORHAR:  cpu time    0.0069: real time    0.0070
    MIXING:  cpu time    0.0019: real time    0.0019
    OFIELD:  cpu time    0.0001: real time    0.0001

  FORCE on cell =-STRESS in cart. coord.  units (eV):
  Direction    XX          YY          ZZ          XY          YZ          ZX
  --------------------------------------------------------------------------------------
  Alpha Z   303.52544   303.52544   303.52544
  Ewald  106884.83825106884.74779************     0.00000    -0.13133    -0.00000
  Hartree109202.62210109202.60383************    -0.00000    -0.08504     0.00000
  E(xc)    -709.82586  -709.83288  -714.53163     0.00005    -0.01018    -0.00000
  Local  ************************221427.58563     0.00118    -0.04273    -0.00005
  n-local    58.86513    59.02761    41.60410     4.00465     0.07831    -0.48741
  augment   834.18740   834.12518   862.79996    -0.00074     0.07686     0.00000
  Kinetic  2282.38549  2282.28857  2353.53686     2.55085     0.15048    -0.51531
  Fock        0.00000     0.00000     0.00000     0.00000     0.00000     0.00000
  -------------------------------------------------------------------------------------
  Total     -11.17249   -11.23527    -1.24745     0.00000     0.03637     0.00000
  in kB     -21.72030   -21.84237    -2.42515     0.00000     0.07072     0.00000
  external pressure =      -15.33 kB  Pullay stress =        0.00 kB


 VOLUME and BASIS-vectors are now :
 -----------------------------------------------------------------------------
  energy-cutoff  :      350.00
  volume of cell :      824.13
      direct lattice vectors                 reciprocal lattice vectors
     5.557859300  0.000000000  0.000000000     0.179925390 -0.103879972  0.000000000
     2.778929650  4.813247345  0.000000000     0.000000000  0.207759944  0.000000000
     0.000000000  0.000000000 30.806959674     0.000000000  0.000000000  0.032460198

  length of vectors
     5.557859300  5.557859300 30.806959674     0.207759944  0.207759944  0.032460198


 FORCES acting on ions
    electron-ion (+dipol)            ewald-force                    non-local-force                 convergence-correction
 -----------------------------------------------------------------------------------------------
   0.429E-06 -.327E+00 0.309E+04   -.937E-12 0.313E+00 -.309E+04   0.434E-18 0.103E-01 -.376E+00   -.321E-08 -.520E-02 -.103E+00
   0.552E-06 0.514E-01 0.281E+04   -.980E-12 -.565E-12 -.281E+04   0.000E+00 -.545E-01 -.126E+01   -.381E-08 0.210E-02 -.101E+00
   0.299E+00 0.113E+00 0.281E+04   -.247E+00 -.142E+00 -.281E+04   -.495E-01 0.353E-01 -.104E+01   0.598E-02 0.110E-02 -.916E-01
   -.299E+00 0.113E+00 0.281E+04   0.247E+00 -.142E+00 -.281E+04   0.495E-01 0.353E-01 -.104E+01   -.598E-02 0.110E-02 -.916E-01
   0.249E-01 -.552E+01 0.889E+03   -.126E+00 0.572E+01 -.888E+03   0.886E-01 -.588E-01 -.360E+00   0.168E-01 -.156E-01 0.272E+00
   -.249E-01 -.552E+01 0.889E+03   0.126E+00 0.572E+01 -.888E+03   -.886E-01 -.588E-01 -.360E+00   -.168E-01 -.156E-01 0.272E+00
   0.126E-05 0.549E+01 0.894E+03   0.233E-11 -.564E+01 -.893E+03   -.651E-18 -.665E-02 -.280E+00   -.502E-09 0.579E-02 0.292E+00
   0.960E-06 0.552E+01 0.894E+03   0.362E-11 -.579E+01 -.893E+03   0.000E+00 0.118E+00 -.272E+00   0.333E-08 0.250E-01 0.278E+00
   -.125E-05 0.215E-01 -.974E+03   -.296E-11 -.175E-11 0.974E+03   0.173E-17 -.287E-01 0.287E+00   -.786E-08 -.718E-02 0.560E+00
   0.266E+00 0.138E+00 -.975E+03   -.247E+00 -.142E+00 0.974E+03   -.441E-01 0.144E-01 0.392E+00   -.602E-02 0.379E-02 0.561E+00
   -.266E+00 0.138E+00 -.975E+03   0.247E+00 -.142E+00 0.974E+03   0.441E-01 0.144E-01 0.392E+00   0.602E-02 0.379E-02 0.561E+00
   -.673E-06 -.523E+01 -.282E+04   0.119E-11 0.553E+01 0.282E+04   -.694E-17 -.116E+00 0.880E+00   0.139E-07 -.187E-01 0.230E+00
   -.672E-06 -.204E-01 -.282E+04   0.736E-12 0.454E-12 0.282E+04   -.260E-17 -.151E-01 0.926E+00   0.105E-08 -.293E-02 0.218E+00
   0.453E+01 0.263E+01 -.282E+04   -.479E+01 -.277E+01 0.282E+04   0.845E-01 0.588E-01 0.922E+00   0.137E-01 0.107E-01 0.233E+00
   -.453E+01 0.263E+01 -.282E+04   0.479E+01 -.277E+01 0.282E+04   -.845E-01 0.588E-01 0.922E+00   -.137E-01 0.107E-01 0.233E+00
   -.661E-07 -.268E+00 -.877E+03   -.265E-11 0.256E+00 0.876E+03   0.867E-18 0.225E-01 0.139E+00   -.538E-08 -.175E-03 0.493E+00
 -----------------------------------------------------------------------------------------------
   0.340E-06 -.277E-01 -.370E+01   0.462E-14 -.805E-14 -.273E-11   0.867E-18 0.288E-01 -.128E+00   -.288E-08 -.118E-02 0.382E+01
 
 
 POSITION                                       TOTAL-FORCE (eV/Angst)
 -----------------------------------------------------------------------------------
      0.00000      0.00000     12.00000         0.000000     -0.008423     -1.161096
      2.77893      0.00000     12.00000         0.000000     -0.000939      0.147370
      1.38946      2.40662     12.00000         0.008519      0.007454      0.033311
      4.16839      2.40662     12.00000        -0.008519      0.007454      0.033311
      1.38946      0.80221     14.31554         0.004009      0.126636      0.481171
      4.16839      0.80221     14.31554        -0.004009      0.126636      0.481171
      2.77893      3.20883     14.31554         0.000000     -0.153463      0.163875
      5.55786      3.20883     14.31554        -0.000000     -0.127411      0.223842
      2.77893      1.60442     16.61120         0.000000     -0.014407      0.277771
      6.94732      4.01104     16.61120        -0.031142      0.013729      0.018543
      4.16839      4.01104     16.61120         0.031142      0.013729      0.018543
      0.00000      0.00000     18.94198         0.000000      0.167394     -0.241980
      2.77893      0.00000     18.94198         0.000000     -0.038366      0.048376
      1.38946      2.40662     18.94198        -0.168684     -0.065379     -0.217575
      4.16839      2.40662     18.94198         0.168684     -0.065379     -0.217575
      5.55786      1.60442     16.61120         0.000000      0.010736     -0.089059
 -----------------------------------------------------------------------------------
    total drift:                                0.000000     -0.000117     -0.008677


--------------------------------------------------------------------------------------------------------



  FREE ENERGIE OF THE ION-ELECTRON SYSTEM (eV)
  ---------------------------------------------------
  free  energy   TOTEN  =       -92.46678880 eV

  energy  without entropy=      -92.44449131  energy(sigma->0) =      -92.45935631
 


--------------------------------------------------------------------------------------------------------


    POTLOK:  cpu time    0.0206: real time    0.0206


--------------------------------------------------------------------------------------------------------


     LOOP+:  cpu time  354.8245: real time  354.9744
    4ORBIT:  cpu time    0.0000: real time    0.0000

 total amount of memory used by VASP MPI-rank0   362189. kBytes
=======================================================================

   base      :      30000. kBytes
   nonl-proj :     280273. kBytes
   fftplans  :       2015. kBytes
   grid      :       7641. kBytes
   one-center:        248. kBytes
   wavefun   :      42012. kBytes
 
  
  
 General timing and accounting informations for this job:
 ========================================================
  
                  Total CPU time used (sec):      360.237
                            User time (sec):      358.985
                          System time (sec):        1.252
                         Elapsed time (sec):      360.966
  
                   Maximum memory used (kb):      424256.
                   Average memory used (kb):           0.
  
                          Minor page faults:        96797
                          Major page faults:           20
                 Voluntary context switches:          632
