 vasp.5.4.4.18Apr17-6-g9f103f2a35 (build Apr 28 2017 10:53:45) complex          
  
 executed on             LinuxIFC date 2017.08.11  09:16:16
 running on   28 total cores
 distrk:  each k-point on   28 cores,    1 groups
 distr:  one band on NCORES_PER_BAND=   1 cores,   28 groups


--------------------------------------------------------------------------------------------------------


 INCAR:
 POTCAR:    PAW_PBE Pt 04Feb2005                  
 POTCAR:    PAW_PBE H 15Jun2001                   

 ----------------------------------------------------------------------------- 
|                                                                             |
|           W    W    AA    RRRRR   N    N  II  N    N   GGGG   !!!           |
|           W    W   A  A   R    R  NN   N  II  NN   N  G    G  !!!           |
|           W    W  A    A  R    R  N N  N  II  N N  N  G       !!!           |
|           W WW W  AAAAAA  RRRRR   N  N N  II  N  N N  G  GGG   !            |
|           WW  WW  A    A  R   R   N   NN  II  N   NN  G    G                |
|           W    W  A    A  R    R  N    N  II  N    N   GGGG   !!!           |
|                                                                             |
|      For optimal performance we recommend to set                            |
|        NCORE= 4 - approx SQRT( number of cores)                             |
|      NCORE specifies how many cores store one orbital (NPAR=cpu/NCORE).     |
|      This setting can  greatly improve the performance of VASP for DFT.     |
|      The default,   NCORE=1            might be grossly inefficient         |
|      on modern multi-core architectures or massively parallel machines.     |
|      Do your own testing !!!!                                               |
|      Unfortunately you need to use the default for GW and RPA calculations. |
|      (for HF NCORE is supported but not extensively tested yet)             |
|                                                                             |
 ----------------------------------------------------------------------------- 

 POTCAR:    PAW_PBE Pt 04Feb2005                  
   VRHFIN =Pt: s1d9                                                             
   LEXCH  = PE                                                                  
   EATOM  =   729.1176 eV,   53.5886 Ry                                         
                                                                                
   TITEL  = PAW_PBE Pt 04Feb2005                                                
   LULTRA =        F    use ultrasoft PP ?                                      
   IUNSCR =        1    unscreen: 0-lin 1-nonlin 2-no                           
   RPACOR =    2.330    partial core radius                                     
   POMASS =  195.080; ZVAL   =   10.000    mass and valenz                      
   RCORE  =    2.600    outmost cutoff radius                                   
   RWIGS  =    2.750; RWIGS  =    1.455    wigner-seitz radius (au A)           
   ENMAX  =  230.283; ENMIN  =  172.712 eV                                      
   ICORE  =        3    local potential                                         
   LCOR   =        T    correct aug charges                                     
   LPAW   =        T    paw PP                                                  
   EAUG   =  358.966                                                            
   DEXC   =    0.000                                                            
   RMAX   =    2.658    core radius for proj-oper                               
   RAUG   =    1.300    factor for augmentation sphere                          
   RDEP   =    2.761    radius for radial grids                                 
   RDEPT  =    2.203    core radius for aug-charge                              
                                                                                
   Atomic configuration                                                         
   16 entries                                                                   
     n  l   j            E        occ.                                          
     1  0  0.50    -78401.1885   2.0000                                         
     2  0  0.50    -13770.7750   2.0000                                         
     2  1  1.50    -11931.0468   6.0000                                         
     3  0  0.50     -3234.7234   2.0000                                         
     3  1  1.50     -2699.2216   6.0000                                         
     3  2  2.50     -2119.5714  10.0000                                         
     4  0  0.50      -695.1528   2.0000                                         
     4  1  1.50      -519.6034   6.0000                                         
     4  2  2.50      -306.6786  10.0000                                         
     4  3  3.50       -70.1041  14.0000                                         
     5  0  0.50      -101.7747   2.0000                                         
     5  1  1.50       -55.9873   6.0000                                         
     5  2  2.50        -6.1423   9.0000                                         
     6  0  0.50        -5.6573   1.0000                                         
     6  1  1.50        -6.8029   0.0000                                         
     5  3  2.50        -1.3606   0.0000                                         
   Description                                                                  
     l       E           TYP  RCUT    TYP  RCUT                                 
     2     -6.1423404     23  2.500                                             
     2     -7.5029230     23  2.500                                             
     0     -5.6573207     23  2.500                                             
     0      0.7416693     23  2.500                                             
     1     -2.7211652     23  2.600                                             
     1     20.4087390     23  2.600                                             
     3     -1.3605826     23  2.500                                             
  local pseudopotential read in
  partial core-charges read in
  partial kinetic energy density read in
  atomic valenz-charges read in
  non local Contribution for L=           2  read in
    real space projection operators read in
  non local Contribution for L=           2  read in
    real space projection operators read in
  non local Contribution for L=           0  read in
    real space projection operators read in
  non local Contribution for L=           0  read in
    real space projection operators read in
  non local Contribution for L=           1  read in
    real space projection operators read in
  non local Contribution for L=           1  read in
    real space projection operators read in
    PAW grid and wavefunctions read in
 
   number of l-projection  operators is LMAX  =           6
   number of lm-projection operators is LMMAX =          18
 
 POTCAR:    PAW_PBE H 15Jun2001                   
   VRHFIN =H: ultrasoft test                                                    
   LEXCH  = PE                                                                  
   EATOM  =    12.4884 eV,    0.9179 Ry                                         
                                                                                
   TITEL  = PAW_PBE H 15Jun2001                                                 
   LULTRA =        F    use ultrasoft PP ?                                      
   IUNSCR =        0    unscreen: 0-lin 1-nonlin 2-no                           
   RPACOR =    0.000    partial core radius                                     
   POMASS =    1.000; ZVAL   =    1.000    mass and valenz                      
   RCORE  =    1.100    outmost cutoff radius                                   
   RWIGS  =    0.700; RWIGS  =    0.370    wigner-seitz radius (au A)           
   ENMAX  =  250.000; ENMIN  =  200.000 eV                                      
   RCLOC  =    0.701    cutoff for local pot                                    
   LCOR   =        T    correct aug charges                                     
   LPAW   =        T    paw PP                                                  
   EAUG   =  400.000                                                            
   RMAX   =    1.123    core radius for proj-oper                               
   RAUG   =    1.200    factor for augmentation sphere                          
   RDEP   =    1.112    radius for radial grids                                 
   RDEPT  =    0.926    core radius for aug-charge                              
                                                                                
   Atomic configuration                                                         
    2 entries                                                                   
     n  l   j            E        occ.                                          
     1  0  0.50        -6.4927   1.0000                                         
     2  1  0.50        -3.4015   0.0000                                         
   Description                                                                  
     l       E           TYP  RCUT    TYP  RCUT                                 
     0     -6.4927494     23  1.100                                             
     0      6.8029130     23  1.100                                             
     1     -4.0817478     23  1.100                                             
  local pseudopotential read in
  atomic valenz-charges read in
  non local Contribution for L=           0  read in
    real space projection operators read in
  non local Contribution for L=           0  read in
    real space projection operators read in
  non local Contribution for L=           1  read in
    real space projection operators read in
    PAW grid and wavefunctions read in
 
   number of l-projection  operators is LMAX  =           3
   number of lm-projection operators is LMMAX =           5
 

 ----------------------------------------------------------------------------- 
|                                                                             |
|  ADVICE TO THIS USER RUNNING 'VASP/VAMP'   (HEAR YOUR MASTER'S VOICE ...):  |
|                                                                             |
|      You have a (more or less) 'large supercell' and for larger cells       |
|      it might be more efficient to use real space projection opertators     |
|      So try LREAL= Auto  in the INCAR   file.                               |
|      Mind:          For very  accurate calculation you might also keep the  |
|      reciprocal projection scheme          (i.e. LREAL=.FALSE.)             |
|                                                                             |
 ----------------------------------------------------------------------------- 

  PAW_PBE Pt 04Feb2005                  :
 energy of atom  1       EATOM= -729.1176
 kinetic energy error for atom=    0.0144 (will be added to EATOM!!)
  PAW_PBE H 15Jun2001                   :
 energy of atom  2       EATOM=  -12.4884
 kinetic energy error for atom=    0.0203 (will be added to EATOM!!)
 
 
 POSCAR: Pt  H                                   
  positions in cartesian coordinates
  No initial velocities read in
 exchange correlation table for  LEXCH =        8
   RHO(1)=    0.500       N(1)  =     2000
   RHO(2)=  100.500       N(2)  =     4000
 


--------------------------------------------------------------------------------------------------------


 ion  position               nearest neighbor table
   1  0.000  0.000  0.390-   3 2.78   3 2.78   4 2.78   4 2.78   2 2.78   2 2.78   5 2.78   6 2.78
                             7 2.78
   2  0.500  0.000  0.390-   4 2.78   3 2.78   4 2.78   3 2.78   1 2.78   1 2.78   6 2.78   5 2.78
                             8 2.78
   3  0.000  0.500  0.390-   1 2.78   1 2.78   2 2.78   2 2.78   4 2.78   4 2.78   7 2.78   5 2.78
                             8 2.78
   4  0.500  0.500  0.390-   2 2.78   1 2.78   2 2.78   1 2.78   3 2.78   3 2.78   8 2.78   7 2.78
                             6 2.78
   5  0.167  0.167  0.463-   9 2.78  12 2.78  10 2.78   7 2.78   7 2.78   8 2.78   8 2.78   6 2.78
                             6 2.78   1 2.78   3 2.78   2 2.78
   6  0.667  0.167  0.463-  10 2.78  11 2.78   9 2.78   8 2.78   7 2.78   8 2.78   7 2.78   5 2.78
                             5 2.78   2 2.78   4 2.78   1 2.78
   7  0.167  0.667  0.463-  10 2.78  11 2.78  12 2.78   5 2.78   5 2.78   6 2.78   6 2.78   8 2.78
                             8 2.78   3 2.78   4 2.78   1 2.78
   8  0.667  0.667  0.463-   9 2.78  12 2.78  11 2.78   6 2.78   5 2.78   6 2.78   5 2.78   7 2.78
                             7 2.78   4 2.78   2 2.78   3 2.78
   9  0.833  0.333  0.537-   5 2.78   8 2.78   6 2.78  11 2.78  11 2.78  12 2.78  12 2.78  10 2.78
                            10 2.78  15 2.78  13 2.78  16 2.78
  10  0.333  0.333  0.537-   6 2.78   7 2.78   5 2.78  12 2.78  11 2.78  12 2.78  11 2.78   9 2.78
                             9 2.78  16 2.78  15 2.78  14 2.78
  11  0.833  0.833  0.537-   6 2.78   7 2.78   8 2.78   9 2.78   9 2.78  10 2.78  10 2.78  12 2.78
                            12 2.78  13 2.78  14 2.78  15 2.78
  12  0.333  0.833  0.537-   5 2.78   8 2.78   7 2.78  10 2.78   9 2.78  10 2.78   9 2.78  11 2.78
                            11 2.78  14 2.78  13 2.78  16 2.78
  13  0.000  0.000  0.610-  17 1.80  15 2.78  15 2.78  16 2.78  16 2.78  14 2.78  14 2.78  11 2.78
                            12 2.78   9 2.78
  14  0.500  0.000  0.610-  16 2.78  15 2.78  16 2.78  15 2.78  13 2.78  13 2.78  12 2.78  11 2.78
                            10 2.78
  15  0.000  0.500  0.610-  13 2.78  13 2.78  14 2.78  14 2.78  16 2.78  16 2.78   9 2.78  10 2.78
                            11 2.78
  16  0.500  0.500  0.610-  14 2.78  13 2.78  14 2.78  13 2.78  15 2.78  15 2.78  10 2.78   9 2.78
                            12 2.78
  17  0.000  0.000  0.669-  13 1.80
 
  LATTYP: Found a hexagonal cell.
 ALAT       =     5.5578593001
 C/A-ratio  =     5.5429542221
  
  Lattice vectors:
  
 A1 = (   2.7789296501,  -4.8132473446,   0.0000000000)
 A2 = (  -5.5578593001,   0.0000000000,   0.0000000000)
 A3 = (   0.0000000000,   0.0000000000, -30.8069596737)


Analysis of symmetry for initial positions (statically):
=====================================================================
 Subroutine PRICEL returns:
 Original cell was already a primitive cell.
 

 Routine SETGRP: Setting up the symmetry group for a 
 hexagonal supercell.


 Subroutine GETGRP returns: Found  6 space group operations
 (whereof  6 operations were pure point group operations)
 out of a pool of 24 trial point group operations.


The static configuration has the point symmetry C_3v.


Analysis of symmetry for dynamics (positions and initial velocities):
=====================================================================
 Subroutine PRICEL returns:
 Original cell was already a primitive cell.
 

 Routine SETGRP: Setting up the symmetry group for a 
 hexagonal supercell.


 Subroutine GETGRP returns: Found  6 space group operations
 (whereof  6 operations were pure point group operations)
 out of a pool of 24 trial point group operations.


The dynamic configuration has the point symmetry C_3v.


Analysis of constrained symmetry for selective dynamics:
=====================================================================
 Subroutine PRICEL returns:
 Original cell was already a primitive cell.
 

 Routine SETGRP: Setting up the symmetry group for a 
 hexagonal supercell.


 Subroutine GETGRP returns: Found  6 space group operations
 (whereof  6 operations were pure point group operations)
 out of a pool of 24 trial point group operations.


The constrained configuration has the point symmetry C_3v.


 Subroutine INISYM returns: Found  6 space group operations
 (whereof  6 operations are pure point group operations),
 and found     1 'primitive' translations

 
 
 KPOINTS: KPOINTS created by Atomic Simulation Env

Automatic generation of k-mesh.
Space group operators:
 irot       det(A)        alpha          n_x          n_y          n_z        tau_x        tau_y        tau_z
    1     1.000000     0.000001     1.000000     0.000000     0.000000     0.000000     0.000000     0.000000
    2     1.000000   120.000000     0.000000     0.000000     1.000000     0.000000     0.000000     0.000000
    3     1.000000   120.000000     0.000000     0.000000    -1.000000     0.000000     0.000000     0.000000
    4    -1.000000   180.000000     0.500000    -0.866025     0.000000     0.000000     0.000000     0.000000
    5    -1.000000   180.000000     1.000000     0.000000     0.000000     0.000000     0.000000     0.000000
    6    -1.000000   180.000000    -0.500000    -0.866025     0.000000     0.000000     0.000000     0.000000
 
 Subroutine IBZKPT returns following result:
 ===========================================
 
 Found     20 irreducible k-points:
 
 Following reciprocal coordinates:
            Coordinates               Weight
  0.062500  0.062500  0.000000     48.000000
  0.187500  0.062500  0.000000     96.000000
  0.312500  0.062500  0.000000     96.000000
  0.437500  0.062500  0.000000     96.000000
 -0.437500  0.062500  0.000000     96.000000
 -0.312500  0.062500  0.000000     96.000000
 -0.187500  0.062500  0.000000     96.000000
 -0.062500  0.062500  0.000000     48.000000
  0.187500  0.187500  0.000000     48.000000
  0.312500  0.187500  0.000000     96.000000
  0.437500  0.187500  0.000000     96.000000
 -0.437500  0.187500  0.000000     96.000000
 -0.312500  0.187500  0.000000     96.000000
 -0.187500  0.187500  0.000000     48.000000
  0.312500  0.312500  0.000000     48.000000
  0.437500  0.312500  0.000000     96.000000
 -0.437500  0.312500  0.000000     96.000000
 -0.312500  0.312500  0.000000     48.000000
  0.437500  0.437500  0.000000     48.000000
 -0.437500  0.437500  0.000000     48.000000
 
 Following cartesian coordinates:
            Coordinates               Weight
  0.011245  0.006492  0.000000     48.000000
  0.033736 -0.006492  0.000000     96.000000
  0.056227 -0.019477  0.000000     96.000000
  0.078717 -0.032462  0.000000     96.000000
 -0.078717  0.058432  0.000000     96.000000
 -0.056227  0.045447  0.000000     96.000000
 -0.033736  0.032462  0.000000     96.000000
 -0.011245  0.019477  0.000000     48.000000
  0.033736  0.019477  0.000000     48.000000
  0.056227  0.006492  0.000000     96.000000
  0.078717 -0.006492  0.000000     96.000000
 -0.078717  0.084402  0.000000     96.000000
 -0.056227  0.071417  0.000000     96.000000
 -0.033736  0.058432  0.000000     48.000000
  0.056227  0.032462  0.000000     48.000000
  0.078717  0.019477  0.000000     96.000000
 -0.078717  0.110372  0.000000     96.000000
 -0.056227  0.097387  0.000000     48.000000
  0.078717  0.045447  0.000000     48.000000
 -0.078717  0.136342  0.000000     48.000000
 


--------------------------------------------------------------------------------------------------------




 Dimension of arrays:
   k-points           NKPTS =     20   k-points in BZ     NKDIM =     20   number of bands    NBANDS=    112
   number of dos      NEDOS =    301   number of ions     NIONS =     17
   non local maximal  LDIM  =      6   non local SUM 2l+1 LMDIM =     18
   total plane-waves  NPLWV = 112896
   max r-space proj   IRMAX =      1   max aug-charges    IRDMAX=   8496
   dimension x,y,z NGX =    28 NGY =   28 NGZ =  144
   dimension x,y,z NGXF=    56 NGYF=   56 NGZF=  288
   support grid    NGXF=    56 NGYF=   56 NGZF=  288
   ions per type =              16   1
   NGX,Y,Z   is equivalent  to a cutoff of   8.38,  8.38,  7.77 a.u.
   NGXF,Y,Z  is equivalent  to a cutoff of  16.75, 16.75, 15.54 a.u.

 SYSTEM =  unknown system                          
 POSCAR =  Pt  H                                   

 Startparameter for this run:
   NWRITE =      2    write-flag & timer
   PREC   = normal    normal or accurate (medium, high low for compatibility)
   ISTART =      0    job   : 0-new  1-cont  2-samecut
   ICHARG =      2    charge: 1-file 2-atom 10-const
   ISPIN  =      1    spin polarized calculation?
   LNONCOLLINEAR =      F non collinear calculations
   LSORBIT =      F    spin-orbit coupling
   INIWAV =      1    electr: 0-lowe 1-rand  2-diag
   LASPH  =      F    aspherical Exc in radial PAW
   METAGGA=      F    non-selfconsistent MetaGGA calc.

 Electronic Relaxation 1
   ENCUT  =  350.0 eV  25.72 Ry    5.07 a.u.   8.48  8.48 46.99*2*pi/ulx,y,z
   ENINI  =  350.0     initial cutoff
   ENAUG  =  400.0 eV  augmentation charge cutoff
   NELM   =     60;   NELMIN=  2; NELMDL= -5     # of ELM steps 
   EDIFF  = 0.1E-04   stopping-criterion for ELM
   LREAL  =      F    real-space projection
   NLSPLINE    = F    spline interpolate recip. space projectors
   LCOMPAT=      F    compatible to vasp.4.4
   GGA_COMPAT  = T    GGA compatible to vasp.4.4-vasp.4.6
   LMAXPAW     = -100 max onsite density
   LMAXMIX     =    2 max onsite mixed and CHGCAR
   VOSKOWN=      0    Vosko Wilk Nusair interpolation
   ROPT   =    0.00000   0.00000
 Ionic relaxation
   EDIFFG = -.5E-01   stopping-criterion for IOM
   NSW    =    500    number of steps for IOM
   NBLOCK =      1;   KBLOCK =    500    inner block; outer block 
   IBRION =      2    ionic relax: 0-MD 1-quasi-New 2-CG
   NFREE  =      1    steps in history (QN), initial steepest desc. (CG)
   ISIF   =      2    stress and relaxation
   IWAVPR =     11    prediction:  0-non 1-charg 2-wave 3-comb
   ISYM   =      2    0-nonsym 1-usesym 2-fastsym
   LCORR  =      T    Harris-Foulkes like correction to forces

   POTIM  = 0.5000    time-step for ionic-motion
   TEIN   =    0.0    initial temperature
   TEBEG  =    0.0;   TEEND  =   0.0 temperature during run
   SMASS  =  -3.00    Nose mass-parameter (am)
   estimated Nose-frequenzy (Omega)   =  0.10E-29 period in steps =****** mass=  -0.706E-27a.u.
   SCALEE = 1.0000    scale energy and forces
   NPACO  =    256;   APACO  = 16.0  distance and # of slots for P.C.
   PSTRESS=    0.0 pullay stress

  Mass of Ions in am
   POMASS = 195.08  1.00
  Ionic Valenz
   ZVAL   =  10.00  1.00
  Atomic Wigner-Seitz radii
   RWIGS  =  -1.00 -1.00
  virtual crystal weights 
   VCA    =   1.00  1.00
   NELECT =     161.0000    total number of electrons
   NUPDOWN=      -1.0000    fix difference up-down

 DOS related values:
   EMIN   =  10.00;   EMAX   =-10.00  energy-range for DOS
   EFERMI =   0.00
   ISMEAR =     1;   SIGMA  =   0.20  broadening in eV -4-tet -1-fermi 0-gaus

 Electronic relaxation 2 (details)
   IALGO  =     38    algorithm
   LDIAG  =      T    sub-space diagonalisation (order eigenvalues)
   LSUBROT=      F    optimize rotation matrix (better conditioning)
   TURBO    =      0    0=normal 1=particle mesh
   IRESTART =      0    0=no restart 2=restart with 2 vectors
   NREBOOT  =      0    no. of reboots
   NMIN     =      0    reboot dimension
   EREF     =   0.00    reference energy to select bands
   IMIX   =      4    mixing-type and parameters
     AMIX     =   0.40;   BMIX     =  1.00
     AMIX_MAG =   1.60;   BMIX_MAG =  1.00
     AMIN     =   0.10
     WC   =   100.;   INIMIX=   1;  MIXPRE=   1;  MAXMIX= -45

 Intra band minimization:
   WEIMIN = 0.0010     energy-eigenvalue tresh-hold
   EBREAK =  0.22E-07  absolut break condition
   DEPER  =   0.30     relativ break condition  

   TIME   =   0.40     timestep for ELM

  volume/ion in A,a.u.               =      48.48       327.15
  Fermi-wavevector in a.u.,A,eV,Ry     =   0.949916  1.795081 12.277090  0.902341
  Thomas-Fermi vector in A             =   2.078244
 
 Write flags
   LWAVE        =      F    write WAVECAR
   LDOWNSAMPLE  =      F    k-point downsampling of WAVECAR
   LCHARG       =      F    write CHGCAR
   LVTOT        =      F    write LOCPOT, total local potential
   LVHAR        =      F    write LOCPOT, Hartree potential only
   LELF         =      F    write electronic localiz. function (ELF)
   LORBIT       =      0    0 simple, 1 ext, 2 COOP (PROOUT), +10 PAW based schemes


 Dipole corrections
   LMONO  =      F    monopole corrections only (constant potential shift)
   LDIPOL =      F    correct potential (dipole corrections)
   IDIPOL =      3    1-x, 2-y, 3-z, 4-all directions 
   EPSILON=  1.0000000 bulk dielectric constant

 Exchange correlation treatment:
   GGA     =    PE    GGA type
   LEXCH   =     8    internal setting for exchange type
   VOSKOWN=      0    Vosko Wilk Nusair interpolation
   LHFCALC =     F    Hartree Fock is set to
   LHFONE  =     F    Hartree Fock one center treatment
   AEXX    =    0.0000 exact exchange contribution

 Linear response parameters
   LEPSILON=     F    determine dielectric tensor
   LRPA    =     F    only Hartree local field effects (RPA)
   LNABLA  =     F    use nabla operator in PAW spheres
   LVEL    =     F    velocity operator in full k-point grid
   LINTERFAST=   F  fast interpolation
   KINTER  =     0    interpolate to denser k-point grid
   CSHIFT  =0.1000    complex shift for real part using Kramers Kronig
   OMEGAMAX=  -1.0    maximum frequency
   DEG_THRESHOLD= 0.2000000E-02 threshold for treating states as degnerate
   RTIME   =   -0.100 relaxation time in fs
  (WPLASMAI=    0.000 imaginary part of plasma frequency in eV, 0.658/RTIME)
   DFIELD  = 0.0000000 0.0000000 0.0000000 field for delta impulse in time
 
 Orbital magnetization related:
   ORBITALMAG=     F  switch on orbital magnetization
   LCHIMAG   =     F  perturbation theory with respect to B field
   DQ        =  0.001000  dq finite difference perturbation B field
   LLRAUG    =     F  two centre corrections for induced B field



--------------------------------------------------------------------------------------------------------


 conjugate gradient relaxation of ions
   using selective dynamics as specified on POSCAR
   WARNING: If single coordinates had been selected the selection of coordinates
            is made according to the corresponding   d i r e c t   coordinates!
            Don't support selection of single cartesian coordinates -- sorry ...
  !
 charge density and potential will be updated during run
 non-spin polarized calculation
 Variant of blocked Davidson
 Davidson routine will perform the subspace rotation
 perform sub-space diagonalisation
    after iterative eigenvector-optimisation
 modified Broyden-mixing scheme, WC =      100.0
 initial mixing is a Kerker type mixing with AMIX =  0.4000 and BMIX =      1.0000
 Hartree-type preconditioning will be used
 using additional bands           31
 reciprocal scheme for non local part
 use partial core corrections
 calculate Harris-corrections to forces 
   (improved forces if not selfconsistent)
 use gradient corrections 
 use of overlap-Matrix (Vanderbilt PP)
 Methfessel and Paxton  Order N= 1 SIGMA  =   0.20


--------------------------------------------------------------------------------------------------------


  energy-cutoff  :      350.00
  volume of cell :      824.13
      direct lattice vectors                 reciprocal lattice vectors
     5.557859300  0.000000000  0.000000000     0.179925390 -0.103879972  0.000000000
     2.778929650  4.813247345  0.000000000     0.000000000  0.207759944  0.000000000
     0.000000000  0.000000000 30.806959674     0.000000000  0.000000000  0.032460198

  length of vectors
     5.557859300  5.557859300 30.806959674     0.207759944  0.207759944  0.032460198


 
 k-points in units of 2pi/SCALE and weight: KPOINTS created by Atomic Simulation Env
   0.01124534  0.00649250  0.00000000       0.031
   0.03373601 -0.00649250  0.00000000       0.062
   0.05622668 -0.01947749  0.00000000       0.062
   0.07871736 -0.03246249  0.00000000       0.062
  -0.07871736  0.05843248  0.00000000       0.062
  -0.05622668  0.04544749  0.00000000       0.062
  -0.03373601  0.03246249  0.00000000       0.062
  -0.01124534  0.01947749  0.00000000       0.031
   0.03373601  0.01947749  0.00000000       0.031
   0.05622668  0.00649250  0.00000000       0.062
   0.07871736 -0.00649250  0.00000000       0.062
  -0.07871736  0.08440248  0.00000000       0.062
  -0.05622668  0.07141748  0.00000000       0.062
  -0.03373601  0.05843248  0.00000000       0.031
   0.05622668  0.03246249  0.00000000       0.031
   0.07871736  0.01947749  0.00000000       0.062
  -0.07871736  0.11037247  0.00000000       0.062
  -0.05622668  0.09738747  0.00000000       0.031
   0.07871736  0.04544749  0.00000000       0.031
  -0.07871736  0.13634246  0.00000000       0.031
 
 k-points in reciprocal lattice and weights: KPOINTS created by Atomic Simulation Env
   0.06250000  0.06250000  0.00000000       0.031
   0.18750000  0.06250000  0.00000000       0.062
   0.31250000  0.06250000  0.00000000       0.062
   0.43750000  0.06250000  0.00000000       0.062
  -0.43750000  0.06250000  0.00000000       0.062
  -0.31250000  0.06250000  0.00000000       0.062
  -0.18750000  0.06250000  0.00000000       0.062
  -0.06250000  0.06250000  0.00000000       0.031
   0.18750000  0.18750000  0.00000000       0.031
   0.31250000  0.18750000  0.00000000       0.062
   0.43750000  0.18750000  0.00000000       0.062
  -0.43750000  0.18750000  0.00000000       0.062
  -0.31250000  0.18750000  0.00000000       0.062
  -0.18750000  0.18750000  0.00000000       0.031
   0.31250000  0.31250000  0.00000000       0.031
   0.43750000  0.31250000  0.00000000       0.062
  -0.43750000  0.31250000  0.00000000       0.062
  -0.31250000  0.31250000  0.00000000       0.031
   0.43750000  0.43750000  0.00000000       0.031
  -0.43750000  0.43750000  0.00000000       0.031
 
 position of ions in fractional coordinates (direct lattice) 
   0.00000000  0.00000000  0.38952237
   0.50000000  0.00000000  0.38952237
   0.00000000  0.50000000  0.38952237
   0.50000000  0.50000000  0.38952237
   0.16666667  0.16666667  0.46317412
   0.66666667  0.16666667  0.46317412
   0.16666667  0.66666667  0.46317412
   0.66666667  0.66666667  0.46317412
   0.83333333  0.33333333  0.53682588
   0.33333333  0.33333333  0.53682588
   0.83333333  0.83333333  0.53682588
   0.33333333  0.83333333  0.53682588
   0.00000000  0.00000000  0.61047763
   0.50000000  0.00000000  0.61047763
   0.00000000  0.50000000  0.61047763
   0.50000000  0.50000000  0.61047763
   0.00000000  0.00000000  0.66890598
 
 position of ions in cartesian coordinates  (Angst):
   0.00000000  0.00000000 12.00000000
   2.77892965  0.00000000 12.00000000
   1.38946483  2.40662367 12.00000000
   4.16839448  2.40662367 12.00000000
   1.38946483  0.80220789 14.26898656
   4.16839448  0.80220789 14.26898656
   2.77892965  3.20883156 14.26898656
   5.55785930  3.20883156 14.26898656
   5.55785930  1.60441578 16.53797312
   2.77892965  1.60441578 16.53797312
   6.94732413  4.01103945 16.53797312
   4.16839448  4.01103945 16.53797312
   0.00000000  0.00000000 18.80695967
   2.77892965  0.00000000 18.80695967
   1.38946483  2.40662367 18.80695967
   4.16839448  2.40662367 18.80695967
   0.00000000  0.00000000 20.60695967
 


--------------------------------------------------------------------------------------------------------


 k-point  1 :   0.0625 0.0625 0.0000  plane waves:   12325
 k-point  2 :   0.1875 0.0625 0.0000  plane waves:   12294
 k-point  3 :   0.3125 0.0625 0.0000  plane waves:   12263
 k-point  4 :   0.4375 0.0625 0.0000  plane waves:   12221
 k-point  5 :  -0.4375 0.0625 0.0000  plane waves:   12211
 k-point  6 :  -0.3125 0.0625 0.0000  plane waves:   12242
 k-point  7 :  -0.1875 0.0625 0.0000  plane waves:   12280
 k-point  8 :  -0.0625 0.0625 0.0000  plane waves:   12329
 k-point  9 :   0.1875 0.1875 0.0000  plane waves:   12277
 k-point 10 :   0.3125 0.1875 0.0000  plane waves:   12288
 k-point 11 :   0.4375 0.1875 0.0000  plane waves:   12234
 k-point 12 :  -0.4375 0.1875 0.0000  plane waves:   12216
 k-point 13 :  -0.3125 0.1875 0.0000  plane waves:   12215
 k-point 14 :  -0.1875 0.1875 0.0000  plane waves:   12289
 k-point 15 :   0.3125 0.3125 0.0000  plane waves:   12275
 k-point 16 :   0.4375 0.3125 0.0000  plane waves:   12239
 k-point 17 :  -0.4375 0.3125 0.0000  plane waves:   12235
 k-point 18 :  -0.3125 0.3125 0.0000  plane waves:   12232
 k-point 19 :   0.4375 0.4375 0.0000  plane waves:   12200
 k-point 20 :  -0.4375 0.4375 0.0000  plane waves:   12214

 maximum and minimum number of plane-waves per node :     12329    12200

 maximum number of plane-waves:     12329
 maximum index in each direction: 
   IXMAX=    8   IYMAX=    8   IZMAX=   46
   IXMIN=   -8   IYMIN=   -8   IZMIN=  -46


 serial   3D FFT for wavefunctions
 parallel 3D FFT for charge:
    minimum data exchange during FFTs selected (reduces bandwidth)


 total amount of memory used by VASP MPI-rank0   128838. kBytes
=======================================================================

   base      :      30000. kBytes
   nonl-proj :      74483. kBytes
   fftplans  :       1549. kBytes
   grid      :       6343. kBytes
   one-center:        264. kBytes
   wavefun   :      16199. kBytes
 
     INWAV:  cpu time    0.0000: real time    0.0000
 Broyden mixing: mesh for mixing (old mesh)
   NGX = 17   NGY = 17   NGZ = 93
  (NGX  = 56   NGY  = 56   NGZ  =288)
  gives a total of  26877 points

 initial charge density was supplied:
 charge density of overlapping atoms calculated
 number of electron     161.0000000 magnetization 
 keeping initial charge density in first step


--------------------------------------------------------------------------------------------------------


 Maximum index for augmentation-charges          431 (set IRDMAX)


--------------------------------------------------------------------------------------------------------


 First call to EWALD:  gamma=   0.189
 Maximum number of real-space cells 5x 5x 1
 Maximum number of reciprocal cells 2x 2x 8

    FEWALD:  cpu time    0.0023: real time    0.0023


--------------------------------------- Iteration      1(   1)  ---------------------------------------


    POTLOK:  cpu time    0.0848: real time    0.0928
    SETDIJ:  cpu time    0.0107: real time    0.0103
     EDDAV:  cpu time   11.2654: real time   11.2686
       DOS:  cpu time    0.0131: real time    0.0131
    --------------------------------------------
      LOOP:  cpu time   11.3739: real time   11.3848

 eigenvalue-minimisations  :  4480
 total energy-change (2. order) : 0.8817478E+03  (-0.5518544E+04)
 number of electron     161.0000000 magnetization 
 augmentation part      161.0000000 magnetization 

 Free energy of the ion-electron system (eV)
  ---------------------------------------------------
  alpha Z        PSCENC =       297.60228517
  Ewald energy   TEWEN  =    100622.81813133
  -Hartree energ DENC   =   -112678.03363999
  -exchange      EXHF   =         0.00000000
  -V(xc)+E(xc)   XCENC  =        57.89130994
  PAW double counting   =     11140.11059429   -10687.58762492
  entropy T*S    EENTRO =         0.00752999
  eigenvalues    EBANDS =       450.81970476
  atomic energy  EATOM  =     11678.11952672
  Solvation  Ediel_sol  =         0.00000000
  ---------------------------------------------------
  free energy    TOTEN  =       881.74781730 eV

  energy without entropy =      881.74028731  energy(sigma->0) =      881.74530730


--------------------------------------------------------------------------------------------------------




--------------------------------------- Iteration      1(   2)  ---------------------------------------


     EDDAV:  cpu time   13.3062: real time   13.3099
       DOS:  cpu time    0.0050: real time    0.0050
    --------------------------------------------
      LOOP:  cpu time   13.3112: real time   13.3149

 eigenvalue-minimisations  :  5992
 total energy-change (2. order) :-0.9382677E+03  (-0.8813462E+03)
 number of electron     161.0000000 magnetization 
 augmentation part      161.0000000 magnetization 

 Free energy of the ion-electron system (eV)
  ---------------------------------------------------
  alpha Z        PSCENC =       297.60228517
  Ewald energy   TEWEN  =    100622.81813133
  -Hartree energ DENC   =   -112678.03363999
  -exchange      EXHF   =         0.00000000
  -V(xc)+E(xc)   XCENC  =        57.89130994
  PAW double counting   =     11140.11059429   -10687.58762492
  entropy T*S    EENTRO =        -0.00991393
  eigenvalues    EBANDS =      -487.43059163
  atomic energy  EATOM  =     11678.11952672
  Solvation  Ediel_sol  =         0.00000000
  ---------------------------------------------------
  free energy    TOTEN  =       -56.51992301 eV

  energy without entropy =      -56.51000908  energy(sigma->0) =      -56.51661837


--------------------------------------------------------------------------------------------------------




--------------------------------------- Iteration      1(   3)  ---------------------------------------


     EDDAV:  cpu time   12.6054: real time   12.6194
       DOS:  cpu time    0.0059: real time    0.0059
    --------------------------------------------
      LOOP:  cpu time   12.6113: real time   12.6253

 eigenvalue-minimisations  :  5600
 total energy-change (2. order) :-0.4542500E+02  (-0.4306593E+02)
 number of electron     161.0000000 magnetization 
 augmentation part      161.0000000 magnetization 

 Free energy of the ion-electron system (eV)
  ---------------------------------------------------
  alpha Z        PSCENC =       297.60228517
  Ewald energy   TEWEN  =    100622.81813133
  -Hartree energ DENC   =   -112678.03363999
  -exchange      EXHF   =         0.00000000
  -V(xc)+E(xc)   XCENC  =        57.89130994
  PAW double counting   =     11140.11059429   -10687.58762492
  entropy T*S    EENTRO =        -0.03896615
  eigenvalues    EBANDS =      -532.82654249
  atomic energy  EATOM  =     11678.11952672
  Solvation  Ediel_sol  =         0.00000000
  ---------------------------------------------------
  free energy    TOTEN  =      -101.94492610 eV

  energy without entropy =     -101.90595995  energy(sigma->0) =     -101.93193738


--------------------------------------------------------------------------------------------------------




--------------------------------------- Iteration      1(   4)  ---------------------------------------


     EDDAV:  cpu time   13.1460: real time   13.1492
       DOS:  cpu time    0.0111: real time    0.0111
    --------------------------------------------
      LOOP:  cpu time   13.1572: real time   13.1603

 eigenvalue-minimisations  :  5936
 total energy-change (2. order) :-0.7998142E+00  (-0.7991002E+00)
 number of electron     161.0000000 magnetization 
 augmentation part      161.0000000 magnetization 

 Free energy of the ion-electron system (eV)
  ---------------------------------------------------
  alpha Z        PSCENC =       297.60228517
  Ewald energy   TEWEN  =    100622.81813133
  -Hartree energ DENC   =   -112678.03363999
  -exchange      EXHF   =         0.00000000
  -V(xc)+E(xc)   XCENC  =        57.89130994
  PAW double counting   =     11140.11059429   -10687.58762492
  entropy T*S    EENTRO =        -0.03907515
  eigenvalues    EBANDS =      -533.62624767
  atomic energy  EATOM  =     11678.11952672
  Solvation  Ediel_sol  =         0.00000000
  ---------------------------------------------------
  free energy    TOTEN  =      -102.74474027 eV

  energy without entropy =     -102.70566512  energy(sigma->0) =     -102.73171522


--------------------------------------------------------------------------------------------------------




--------------------------------------- Iteration      1(   5)  ---------------------------------------


     EDDAV:  cpu time   13.8395: real time   13.8477
       DOS:  cpu time    0.0164: real time    0.0164
    CHARGE:  cpu time    0.2658: real time    0.2658
    MIXING:  cpu time    0.0100: real time    0.0100
    --------------------------------------------
      LOOP:  cpu time   14.1317: real time   14.1400

 eigenvalue-minimisations  :  6356
 total energy-change (2. order) :-0.1802538E-01  (-0.1801608E-01)
 number of electron     161.0000017 magnetization 
 augmentation part       46.4390092 magnetization 

 Broyden mixing:
  rms(total) = 0.44043E+01    rms(broyden)= 0.44042E+01
  rms(prec ) = 0.44356E+01
  weight for this iteration     100.00

 Free energy of the ion-electron system (eV)
  ---------------------------------------------------
  alpha Z        PSCENC =       297.60228517
  Ewald energy   TEWEN  =    100622.81813133
  -Hartree energ DENC   =   -112678.03363999
  -exchange      EXHF   =         0.00000000
  -V(xc)+E(xc)   XCENC  =        57.89130994
  PAW double counting   =     11140.11059429   -10687.58762492
  entropy T*S    EENTRO =        -0.03907621
  eigenvalues    EBANDS =      -533.64427199
  atomic energy  EATOM  =     11678.11952672
  Solvation  Ediel_sol  =         0.00000000
  ---------------------------------------------------
  free energy    TOTEN  =      -102.76276565 eV

  energy without entropy =     -102.72368945  energy(sigma->0) =     -102.74974025


--------------------------------------------------------------------------------------------------------




--------------------------------------- Iteration      1(   6)  ---------------------------------------


    POTLOK:  cpu time    0.0831: real time    0.0879
    SETDIJ:  cpu time    0.0132: real time    0.0132
     EDDAV:  cpu time   12.4541: real time   12.4561
       DOS:  cpu time    0.0052: real time    0.0052
    CHARGE:  cpu time    0.2537: real time    0.2537
    MIXING:  cpu time    0.0068: real time    0.0068
    --------------------------------------------
      LOOP:  cpu time   12.8161: real time   12.8229

 eigenvalue-minimisations  :  5460
 total energy-change (2. order) : 0.3928385E+01  (-0.2716495E+01)
 number of electron     160.9999989 magnetization 
 augmentation part       49.1729692 magnetization 

 Broyden mixing:
  rms(total) = 0.31837E+01    rms(broyden)= 0.31836E+01
  rms(prec ) = 0.32897E+01
  weight for this iteration     100.00

 eigenvalues of (default mixing * dielectric matrix)
  average eigenvalue GAMMA=   1.3225
  1.3225

 Free energy of the ion-electron system (eV)
  ---------------------------------------------------
  alpha Z        PSCENC =       297.60228517
  Ewald energy   TEWEN  =    100622.81813133
  -Hartree energ DENC   =   -112465.58597027
  -exchange      EXHF   =         0.00000000
  -V(xc)+E(xc)   XCENC  =        53.82031430
  PAW double counting   =     12370.27755957   -11942.15112295
  entropy T*S    EENTRO =        -0.03861534
  eigenvalues    EBANDS =      -713.69648896
  atomic energy  EATOM  =     11678.11952672
  Solvation  Ediel_sol  =         0.00000000
  ---------------------------------------------------
  free energy    TOTEN  =       -98.83438043 eV

  energy without entropy =      -98.79576509  energy(sigma->0) =      -98.82150865


--------------------------------------------------------------------------------------------------------




--------------------------------------- Iteration      1(   7)  ---------------------------------------


    POTLOK:  cpu time    0.0808: real time    0.0811
    SETDIJ:  cpu time    0.0088: real time    0.0087
     EDDAV:  cpu time   12.0061: real time   12.0082
       DOS:  cpu time    0.0057: real time    0.0057
    CHARGE:  cpu time    0.3221: real time    0.3222
    MIXING:  cpu time    0.0103: real time    0.0103
    --------------------------------------------
      LOOP:  cpu time   12.4338: real time   12.4362

 eigenvalue-minimisations  :  5208
 total energy-change (2. order) :-0.3036532E+02  (-0.1958000E+02)
 number of electron     161.0000030 magnetization 
 augmentation part       47.9517161 magnetization 

 Broyden mixing:
  rms(total) = 0.47919E+01    rms(broyden)= 0.47918E+01
  rms(prec ) = 0.54503E+01
  weight for this iteration     100.00

 eigenvalues of (default mixing * dielectric matrix)
  average eigenvalue GAMMA=   1.1711
  2.0917  0.2505

 Free energy of the ion-electron system (eV)
  ---------------------------------------------------
  alpha Z        PSCENC =       297.60228517
  Ewald energy   TEWEN  =    100622.81813133
  -Hartree energ DENC   =   -112656.87070512
  -exchange      EXHF   =         0.00000000
  -V(xc)+E(xc)   XCENC  =        52.57408437
  PAW double counting   =     13340.07966010   -12922.72033950
  entropy T*S    EENTRO =         0.01913977
  eigenvalues    EBANDS =      -540.82148780
  atomic energy  EATOM  =     11678.11952672
  Solvation  Ediel_sol  =         0.00000000
  ---------------------------------------------------
  free energy    TOTEN  =      -129.19970495 eV

  energy without entropy =     -129.21884473  energy(sigma->0) =     -129.20608488


--------------------------------------------------------------------------------------------------------




--------------------------------------- Iteration      1(   8)  ---------------------------------------


    POTLOK:  cpu time    0.0837: real time    0.0882
    SETDIJ:  cpu time    0.0092: real time    0.0092
     EDDAV:  cpu time   12.5807: real time   12.5833
       DOS:  cpu time    0.0095: real time    0.0095
    CHARGE:  cpu time    0.2745: real time    0.2745
    MIXING:  cpu time    0.0084: real time    0.0084
    --------------------------------------------
      LOOP:  cpu time   12.9660: real time   12.9730

 eigenvalue-minimisations  :  5572
 total energy-change (2. order) : 0.2029229E+02  (-0.9960922E+01)
 number of electron     161.0000017 magnetization 
 augmentation part       49.5491577 magnetization 

 Broyden mixing:
  rms(total) = 0.30600E+01    rms(broyden)= 0.30599E+01
  rms(prec ) = 0.35810E+01
  weight for this iteration     100.00

 eigenvalues of (default mixing * dielectric matrix)
  average eigenvalue GAMMA=   0.9263
  2.2169  0.2810  0.2810

 Free energy of the ion-electron system (eV)
  ---------------------------------------------------
  alpha Z        PSCENC =       297.60228517
  Ewald energy   TEWEN  =    100622.81813133
  -Hartree energ DENC   =   -112529.18843438
  -exchange      EXHF   =         0.00000000
  -V(xc)+E(xc)   XCENC  =        51.63272363
  PAW double counting   =     14211.21804706   -13805.17921640
  entropy T*S    EENTRO =        -0.03158503
  eigenvalues    EBANDS =      -635.89889001
  atomic energy  EATOM  =     11678.11952672
  Solvation  Ediel_sol  =         0.00000000
  ---------------------------------------------------
  free energy    TOTEN  =      -108.90741190 eV

  energy without entropy =     -108.87582688  energy(sigma->0) =     -108.89688356


--------------------------------------------------------------------------------------------------------




--------------------------------------- Iteration      1(   9)  ---------------------------------------


    POTLOK:  cpu time    0.0842: real time    0.0843
    SETDIJ:  cpu time    0.0116: real time    0.0114
     EDDAV:  cpu time   12.3290: real time   12.3312
       DOS:  cpu time    0.0050: real time    0.0050
    CHARGE:  cpu time    0.2953: real time    0.2953
    MIXING:  cpu time    0.0065: real time    0.0063
    --------------------------------------------
      LOOP:  cpu time   12.7315: real time   12.7335

 eigenvalue-minimisations  :  5404
 total energy-change (2. order) : 0.4743271E+01  (-0.1203862E+02)
 number of electron     161.0000004 magnetization 
 augmentation part       49.8125275 magnetization 

 Broyden mixing:
  rms(total) = 0.24015E+01    rms(broyden)= 0.24013E+01
  rms(prec ) = 0.31733E+01
  weight for this iteration     100.00

 eigenvalues of (default mixing * dielectric matrix)
  average eigenvalue GAMMA=   0.8666
  2.2742  0.7311  0.3071  0.1538

 Free energy of the ion-electron system (eV)
  ---------------------------------------------------
  alpha Z        PSCENC =       297.60228517
  Ewald energy   TEWEN  =    100622.81813133
  -Hartree energ DENC   =   -112475.79011783
  -exchange      EXHF   =         0.00000000
  -V(xc)+E(xc)   XCENC  =        51.69345045
  PAW double counting   =     14394.61513141   -13990.11582411
  entropy T*S    EENTRO =         0.02677689
  eigenvalues    EBANDS =      -683.13350098
  atomic energy  EATOM  =     11678.11952672
  Solvation  Ediel_sol  =         0.00000000
  ---------------------------------------------------
  free energy    TOTEN  =      -104.16414096 eV

  energy without entropy =     -104.19091784  energy(sigma->0) =     -104.17306658


--------------------------------------------------------------------------------------------------------




--------------------------------------- Iteration      1(  10)  ---------------------------------------


    POTLOK:  cpu time    0.0728: real time    0.0773
    SETDIJ:  cpu time    0.0104: real time    0.0104
     EDDAV:  cpu time   12.1059: real time   12.1082
       DOS:  cpu time    0.0087: real time    0.0087
    CHARGE:  cpu time    0.2922: real time    0.2922
    MIXING:  cpu time    0.0066: real time    0.0064
    --------------------------------------------
      LOOP:  cpu time   12.4966: real time   12.5032

 eigenvalue-minimisations  :  5292
 total energy-change (2. order) : 0.5622128E+00  (-0.9557594E+01)
 number of electron     161.0000000 magnetization 
 augmentation part       49.6771663 magnetization 

 Broyden mixing:
  rms(total) = 0.24580E+01    rms(broyden)= 0.24578E+01
  rms(prec ) = 0.30267E+01
  weight for this iteration     100.00

 eigenvalues of (default mixing * dielectric matrix)
  average eigenvalue GAMMA=   0.7573
  2.3308  0.8238  0.2531  0.2531  0.1257

 Free energy of the ion-electron system (eV)
  ---------------------------------------------------
  alpha Z        PSCENC =       297.60228517
  Ewald energy   TEWEN  =    100622.81813133
  -Hartree energ DENC   =   -112489.79198935
  -exchange      EXHF   =         0.00000000
  -V(xc)+E(xc)   XCENC  =        51.96387829
  PAW double counting   =     14537.78639808   -14133.11438018
  entropy T*S    EENTRO =        -0.04034641
  eigenvalues    EBANDS =      -668.94543176
  atomic energy  EATOM  =     11678.11952672
  Solvation  Ediel_sol  =         0.00000000
  ---------------------------------------------------
  free energy    TOTEN  =      -103.60192811 eV

  energy without entropy =     -103.56158170  energy(sigma->0) =     -103.58847930


--------------------------------------------------------------------------------------------------------




--------------------------------------- Iteration      1(  11)  ---------------------------------------


    POTLOK:  cpu time    0.0739: real time    0.0774
    SETDIJ:  cpu time    0.0087: real time    0.0086
     EDDAV:  cpu time   12.3193: real time   12.3215
       DOS:  cpu time    0.0082: real time    0.0082
    CHARGE:  cpu time    0.2916: real time    0.2916
    MIXING:  cpu time    0.0090: real time    0.0090
    --------------------------------------------
      LOOP:  cpu time   12.7108: real time   12.7163

 eigenvalue-minimisations  :  5432
 total energy-change (2. order) : 0.6726875E+01  (-0.2606081E+01)
 number of electron     161.0000012 magnetization 
 augmentation part       49.7586761 magnetization 

 Broyden mixing:
  rms(total) = 0.89429E+00    rms(broyden)= 0.89417E+00
  rms(prec ) = 0.95576E+00
  weight for this iteration     100.00

 eigenvalues of (default mixing * dielectric matrix)
  average eigenvalue GAMMA=   0.7004
  2.0690  0.7133  0.7133  0.2900  0.2900  0.1266

 Free energy of the ion-electron system (eV)
  ---------------------------------------------------
  alpha Z        PSCENC =       297.60228517
  Ewald energy   TEWEN  =    100622.81813133
  -Hartree energ DENC   =   -112491.33363958
  -exchange      EXHF   =         0.00000000
  -V(xc)+E(xc)   XCENC  =        51.99281912
  PAW double counting   =     14619.08636713   -14214.85349476
  entropy T*S    EENTRO =        -0.03437962
  eigenvalues    EBANDS =      -660.27266843
  atomic energy  EATOM  =     11678.11952672
  Solvation  Ediel_sol  =         0.00000000
  ---------------------------------------------------
  free energy    TOTEN  =       -96.87505292 eV

  energy without entropy =      -96.84067330  energy(sigma->0) =      -96.86359305


--------------------------------------------------------------------------------------------------------




--------------------------------------- Iteration      1(  12)  ---------------------------------------


    POTLOK:  cpu time    0.0845: real time    0.0847
    SETDIJ:  cpu time    0.0102: real time    0.0102
     EDDAV:  cpu time   11.9875: real time   11.9896
       DOS:  cpu time    0.0057: real time    0.0057
    CHARGE:  cpu time    0.2910: real time    0.2912
    MIXING:  cpu time    0.0070: real time    0.0070
    --------------------------------------------
      LOOP:  cpu time   12.3859: real time   12.3883

 eigenvalue-minimisations  :  5152
 total energy-change (2. order) :-0.6538732E-01  (-0.8519137E+00)
 number of electron     161.0000000 magnetization 
 augmentation part       49.7156545 magnetization 

 Broyden mixing:
  rms(total) = 0.99005E+00    rms(broyden)= 0.98998E+00
  rms(prec ) = 0.12241E+01
  weight for this iteration     100.00

 eigenvalues of (default mixing * dielectric matrix)
  average eigenvalue GAMMA=   0.6834
  2.0967  0.9048  0.5697  0.5697  0.2590  0.2590  0.1250

 Free energy of the ion-electron system (eV)
  ---------------------------------------------------
  alpha Z        PSCENC =       297.60228517
  Ewald energy   TEWEN  =    100622.81813133
  -Hartree energ DENC   =   -112479.47095054
  -exchange      EXHF   =         0.00000000
  -V(xc)+E(xc)   XCENC  =        52.21656177
  PAW double counting   =     14498.64821219   -14092.88099040
  entropy T*S    EENTRO =        -0.04898434
  eigenvalues    EBANDS =      -673.94423215
  atomic energy  EATOM  =     11678.11952672
  Solvation  Ediel_sol  =         0.00000000
  ---------------------------------------------------
  free energy    TOTEN  =       -96.94044024 eV

  energy without entropy =      -96.89145590  energy(sigma->0) =      -96.92411213


--------------------------------------------------------------------------------------------------------




--------------------------------------- Iteration      1(  13)  ---------------------------------------


    POTLOK:  cpu time    0.0752: real time    0.0798
    SETDIJ:  cpu time    0.0088: real time    0.0088
     EDDAV:  cpu time   12.4836: real time   12.4857
       DOS:  cpu time    0.0065: real time    0.0065
    CHARGE:  cpu time    0.2860: real time    0.2860
    MIXING:  cpu time    0.0098: real time    0.0098
    --------------------------------------------
      LOOP:  cpu time   12.8699: real time   12.8765

 eigenvalue-minimisations  :  5432
 total energy-change (2. order) : 0.6767984E+00  (-0.5075005E+00)
 number of electron     161.0000007 magnetization 
 augmentation part       49.6692729 magnetization 

 Broyden mixing:
  rms(total) = 0.36193E+00    rms(broyden)= 0.36184E+00
  rms(prec ) = 0.39067E+00
  weight for this iteration     100.00

 eigenvalues of (default mixing * dielectric matrix)
  average eigenvalue GAMMA=   0.6817
  2.1065  0.9805  0.6765  0.6765  0.3523  0.2681  0.2681  0.1249

 Free energy of the ion-electron system (eV)
  ---------------------------------------------------
  alpha Z        PSCENC =       297.60228517
  Ewald energy   TEWEN  =    100622.81813133
  -Hartree energ DENC   =   -112488.17159497
  -exchange      EXHF   =         0.00000000
  -V(xc)+E(xc)   XCENC  =        52.21140890
  PAW double counting   =     14507.63804994   -14101.99516054
  entropy T*S    EENTRO =        -0.02471612
  eigenvalues    EBANDS =      -664.46157223
  atomic energy  EATOM  =     11678.11952672
  Solvation  Ediel_sol  =         0.00000000
  ---------------------------------------------------
  free energy    TOTEN  =       -96.26364180 eV

  energy without entropy =      -96.23892568  energy(sigma->0) =      -96.25540310


--------------------------------------------------------------------------------------------------------




--------------------------------------- Iteration      1(  14)  ---------------------------------------


    POTLOK:  cpu time    0.0810: real time    0.0812
    SETDIJ:  cpu time    0.0112: real time    0.0112
     EDDAV:  cpu time   12.8313: real time   12.8338
       DOS:  cpu time    0.0050: real time    0.0050
    CHARGE:  cpu time    0.2795: real time    0.2797
    MIXING:  cpu time    0.0066: real time    0.0066
    --------------------------------------------
      LOOP:  cpu time   13.2147: real time   13.2175

 eigenvalue-minimisations  :  5768
 total energy-change (2. order) : 0.5273582E-01  (-0.7434723E-01)
 number of electron     161.0000011 magnetization 
 augmentation part       49.6192926 magnetization 

 Broyden mixing:
  rms(total) = 0.26601E+00    rms(broyden)= 0.26597E+00
  rms(prec ) = 0.28227E+00
  weight for this iteration     100.00

 eigenvalues of (default mixing * dielectric matrix)
  average eigenvalue GAMMA=   0.6420
  2.0416  0.8718  0.7627  0.7627  0.4208  0.1249  0.2604  0.2604  0.2722

 Free energy of the ion-electron system (eV)
  ---------------------------------------------------
  alpha Z        PSCENC =       297.60228517
  Ewald energy   TEWEN  =    100622.81813133
  -Hartree energ DENC   =   -112497.80923844
  -exchange      EXHF   =         0.00000000
  -V(xc)+E(xc)   XCENC  =        52.19957004
  PAW double counting   =     14493.83259319   -14088.26631290
  entropy T*S    EENTRO =        -0.03284331
  eigenvalues    EBANDS =      -654.67461779
  atomic energy  EATOM  =     11678.11952672
  Solvation  Ediel_sol  =         0.00000000
  ---------------------------------------------------
  free energy    TOTEN  =       -96.21090598 eV

  energy without entropy =      -96.17806268  energy(sigma->0) =      -96.19995821


--------------------------------------------------------------------------------------------------------




--------------------------------------- Iteration      1(  15)  ---------------------------------------


    POTLOK:  cpu time    0.0822: real time    0.0885
    SETDIJ:  cpu time    0.0107: real time    0.0106
     EDDAV:  cpu time   13.0991: real time   13.1016
       DOS:  cpu time    0.0057: real time    0.0056
    CHARGE:  cpu time    0.2809: real time    0.2812
    MIXING:  cpu time    0.0118: real time    0.0118
    --------------------------------------------
      LOOP:  cpu time   13.4904: real time   13.4992

 eigenvalue-minimisations  :  5936
 total energy-change (2. order) : 0.7054506E-02  (-0.8358723E-02)
 number of electron     161.0000011 magnetization 
 augmentation part       49.6032616 magnetization 

 Broyden mixing:
  rms(total) = 0.23065E+00    rms(broyden)= 0.23064E+00
  rms(prec ) = 0.24740E+00
  weight for this iteration     100.00

 eigenvalues of (default mixing * dielectric matrix)
  average eigenvalue GAMMA=   0.7557
  1.7630  1.7630  1.5175  0.5936  0.5936  0.4042  0.1249  0.2676  0.2676  0.2618

 Free energy of the ion-electron system (eV)
  ---------------------------------------------------
  alpha Z        PSCENC =       297.60228517
  Ewald energy   TEWEN  =    100622.81813133
  -Hartree energ DENC   =   -112500.45681145
  -exchange      EXHF   =         0.00000000
  -V(xc)+E(xc)   XCENC  =        52.21882617
  PAW double counting   =     14462.56549126   -14056.81791605
  entropy T*S    EENTRO =        -0.03454108
  eigenvalues    EBANDS =      -652.21884354
  atomic energy  EATOM  =     11678.11952672
  Solvation  Ediel_sol  =         0.00000000
  ---------------------------------------------------
  free energy    TOTEN  =       -96.20385148 eV

  energy without entropy =      -96.16931040  energy(sigma->0) =      -96.19233778


--------------------------------------------------------------------------------------------------------




--------------------------------------- Iteration      1(  16)  ---------------------------------------


    POTLOK:  cpu time    0.0817: real time    0.0869
    SETDIJ:  cpu time    0.0090: real time    0.0090
     EDDAV:  cpu time   12.2705: real time   12.2737
       DOS:  cpu time    0.0052: real time    0.0052
    CHARGE:  cpu time    0.2797: real time    0.2799
    MIXING:  cpu time    0.0100: real time    0.0100
    --------------------------------------------
      LOOP:  cpu time   12.6562: real time   12.6647

 eigenvalue-minimisations  :  5404
 total energy-change (2. order) : 0.2650127E-01  (-0.6527139E-02)
 number of electron     161.0000010 magnetization 
 augmentation part       49.5910544 magnetization 

 Broyden mixing:
  rms(total) = 0.10497E+00    rms(broyden)= 0.10496E+00
  rms(prec ) = 0.11859E+00
  weight for this iteration     100.00

 eigenvalues of (default mixing * dielectric matrix)
  average eigenvalue GAMMA=   0.8114
  2.0270  2.0270  1.5318  0.8095  0.6040  0.6040  0.3981  0.1249  0.2670  0.2670
  0.2648

 Free energy of the ion-electron system (eV)
  ---------------------------------------------------
  alpha Z        PSCENC =       297.60228517
  Ewald energy   TEWEN  =    100622.81813133
  -Hartree energ DENC   =   -112504.77761657
  -exchange      EXHF   =         0.00000000
  -V(xc)+E(xc)   XCENC  =        52.29172383
  PAW double counting   =     14358.40712336   -13952.09564962
  entropy T*S    EENTRO =        -0.03484259
  eigenvalues    EBANDS =      -648.50803184
  atomic energy  EATOM  =     11678.11952672
  Solvation  Ediel_sol  =         0.00000000
  ---------------------------------------------------
  free energy    TOTEN  =       -96.17735021 eV

  energy without entropy =      -96.14250762  energy(sigma->0) =      -96.16573601


--------------------------------------------------------------------------------------------------------




--------------------------------------- Iteration      1(  17)  ---------------------------------------


    POTLOK:  cpu time    0.0769: real time    0.0770
    SETDIJ:  cpu time    0.0104: real time    0.0103
     EDDAV:  cpu time   11.9980: real time   12.0038
       DOS:  cpu time    0.0056: real time    0.0055
    CHARGE:  cpu time    0.2813: real time    0.2815
    MIXING:  cpu time    0.0074: real time    0.0072
    --------------------------------------------
      LOOP:  cpu time   12.3796: real time   12.3852

 eigenvalue-minimisations  :  5152
 total energy-change (2. order) : 0.7322415E-02  (-0.4054210E-02)
 number of electron     161.0000010 magnetization 
 augmentation part       49.5919887 magnetization 

 Broyden mixing:
  rms(total) = 0.66636E-01    rms(broyden)= 0.66630E-01
  rms(prec ) = 0.73454E-01
  weight for this iteration     100.00

 eigenvalues of (default mixing * dielectric matrix)
  average eigenvalue GAMMA=   0.7716
  1.7991  1.7991  1.8077  0.6294  0.6294  0.7209  0.5423  0.4097  0.1249  0.2669
  0.2669  0.2634

 Free energy of the ion-electron system (eV)
  ---------------------------------------------------
  alpha Z        PSCENC =       297.60228517
  Ewald energy   TEWEN  =    100622.81813133
  -Hartree energ DENC   =   -112508.24686385
  -exchange      EXHF   =         0.00000000
  -V(xc)+E(xc)   XCENC  =        52.32613953
  PAW double counting   =     14341.39313289   -13935.20817066
  entropy T*S    EENTRO =        -0.03429957
  eigenvalues    EBANDS =      -644.93990935
  atomic energy  EATOM  =     11678.11952672
  Solvation  Ediel_sol  =         0.00000000
  ---------------------------------------------------
  free energy    TOTEN  =       -96.17002780 eV

  energy without entropy =      -96.13572822  energy(sigma->0) =      -96.15859460


--------------------------------------------------------------------------------------------------------




--------------------------------------- Iteration      1(  18)  ---------------------------------------


    POTLOK:  cpu time    0.0815: real time    0.0847
    SETDIJ:  cpu time    0.0107: real time    0.0106
     EDDAV:  cpu time   11.9188: real time   11.9212
       DOS:  cpu time    0.0052: real time    0.0052
    CHARGE:  cpu time    0.2826: real time    0.2824
    MIXING:  cpu time    0.0111: real time    0.0111
    --------------------------------------------
      LOOP:  cpu time   12.3099: real time   12.3152

 eigenvalue-minimisations  :  5208
 total energy-change (2. order) : 0.3411835E-03  (-0.7014084E-03)
 number of electron     161.0000010 magnetization 
 augmentation part       49.5915061 magnetization 

 Broyden mixing:
  rms(total) = 0.57832E-01    rms(broyden)= 0.57830E-01
  rms(prec ) = 0.70144E-01
  weight for this iteration     100.00

 eigenvalues of (default mixing * dielectric matrix)
  average eigenvalue GAMMA=   0.7849
  1.9620  1.6683  1.6683  1.0035  1.0035  0.6073  0.6073  0.1249  0.2670  0.2670
  0.3803  0.3803  0.2638

 Free energy of the ion-electron system (eV)
  ---------------------------------------------------
  alpha Z        PSCENC =       297.60228517
  Ewald energy   TEWEN  =    100622.81813133
  -Hartree energ DENC   =   -112508.49708701
  -exchange      EXHF   =         0.00000000
  -V(xc)+E(xc)   XCENC  =        52.32644460
  PAW double counting   =     14356.57125274   -13950.46721351
  entropy T*S    EENTRO =        -0.03458397
  eigenvalues    EBANDS =      -644.60844269
  atomic energy  EATOM  =     11678.11952672
  Solvation  Ediel_sol  =         0.00000000
  ---------------------------------------------------
  free energy    TOTEN  =       -96.16968661 eV

  energy without entropy =      -96.13510264  energy(sigma->0) =      -96.15815862


--------------------------------------------------------------------------------------------------------




--------------------------------------- Iteration      1(  19)  ---------------------------------------


    POTLOK:  cpu time    0.0795: real time    0.0798
    SETDIJ:  cpu time    0.0109: real time    0.0109
     EDDAV:  cpu time   11.8584: real time   11.8606
       DOS:  cpu time    0.0056: real time    0.0055
    CHARGE:  cpu time    0.2810: real time    0.2814
    MIXING:  cpu time    0.0082: real time    0.0082
    --------------------------------------------
      LOOP:  cpu time   12.2437: real time   12.2463

 eigenvalue-minimisations  :  5096
 total energy-change (2. order) : 0.1812386E-02  (-0.3672103E-03)
 number of electron     161.0000009 magnetization 
 augmentation part       49.5895092 magnetization 

 Broyden mixing:
  rms(total) = 0.38102E-01    rms(broyden)= 0.38101E-01
  rms(prec ) = 0.45926E-01
  weight for this iteration     100.00

 eigenvalues of (default mixing * dielectric matrix)
  average eigenvalue GAMMA=   0.8832
  2.5617  2.1541  1.3401  1.3401  1.3231  0.7376  0.6055  0.6055  0.1249  0.2670
  0.2670  0.4105  0.2639  0.3643

 Free energy of the ion-electron system (eV)
  ---------------------------------------------------
  alpha Z        PSCENC =       297.60228517
  Ewald energy   TEWEN  =    100622.81813133
  -Hartree energ DENC   =   -112509.46586515
  -exchange      EXHF   =         0.00000000
  -V(xc)+E(xc)   XCENC  =        52.33754936
  PAW double counting   =     14364.21344843   -13958.12893949
  entropy T*S    EENTRO =        -0.03441143
  eigenvalues    EBANDS =      -643.62959918
  atomic energy  EATOM  =     11678.11952672
  Solvation  Ediel_sol  =         0.00000000
  ---------------------------------------------------
  free energy    TOTEN  =       -96.16787423 eV

  energy without entropy =      -96.13346280  energy(sigma->0) =      -96.15640375


--------------------------------------------------------------------------------------------------------




--------------------------------------- Iteration      1(  20)  ---------------------------------------


    POTLOK:  cpu time    0.0798: real time    0.0861
    SETDIJ:  cpu time    0.0100: real time    0.0100
     EDDAV:  cpu time   11.5763: real time   11.5785
       DOS:  cpu time    0.0091: real time    0.0091
    CHARGE:  cpu time    0.2824: real time    0.2825
    MIXING:  cpu time    0.0088: real time    0.0087
    --------------------------------------------
      LOOP:  cpu time   11.9664: real time   11.9748

 eigenvalue-minimisations  :  4956
 total energy-change (2. order) : 0.1507169E-02  (-0.9230761E-03)
 number of electron     161.0000009 magnetization 
 augmentation part       49.5867811 magnetization 

 Broyden mixing:
  rms(total) = 0.22551E-01    rms(broyden)= 0.22547E-01
  rms(prec ) = 0.26160E-01
  weight for this iteration     100.00

 eigenvalues of (default mixing * dielectric matrix)
  average eigenvalue GAMMA=   0.8704
  2.3760  1.8046  1.8046  1.1659  1.1659  0.9099  0.9099  0.6113  0.6113  0.1249
  0.2670  0.2670  0.2640  0.4066  0.3681

 Free energy of the ion-electron system (eV)
  ---------------------------------------------------
  alpha Z        PSCENC =       297.60228517
  Ewald energy   TEWEN  =    100622.81813133
  -Hartree energ DENC   =   -112511.85004751
  -exchange      EXHF   =         0.00000000
  -V(xc)+E(xc)   XCENC  =        52.35644889
  PAW double counting   =     14365.42619121   -13959.31906313
  entropy T*S    EENTRO =        -0.03434521
  eigenvalues    EBANDS =      -641.28549453
  atomic energy  EATOM  =     11678.11952672
  Solvation  Ediel_sol  =         0.00000000
  ---------------------------------------------------
  free energy    TOTEN  =       -96.16636706 eV

  energy without entropy =      -96.13202185  energy(sigma->0) =      -96.15491865


--------------------------------------------------------------------------------------------------------




--------------------------------------- Iteration      1(  21)  ---------------------------------------


    POTLOK:  cpu time    0.0782: real time    0.0808
    SETDIJ:  cpu time    0.0090: real time    0.0090
     EDDAV:  cpu time   11.7550: real time   11.7574
       DOS:  cpu time    0.0139: real time    0.0138
    CHARGE:  cpu time    0.2861: real time    0.2864
    MIXING:  cpu time    0.0078: real time    0.0077
    --------------------------------------------
      LOOP:  cpu time   12.1501: real time   12.1551

 eigenvalue-minimisations  :  5096
 total energy-change (2. order) :-0.2717509E-03  (-0.6995640E-03)
 number of electron     161.0000009 magnetization 
 augmentation part       49.5867036 magnetization 

 Broyden mixing:
  rms(total) = 0.26771E-01    rms(broyden)= 0.26769E-01
  rms(prec ) = 0.33832E-01
  weight for this iteration     100.00

 eigenvalues of (default mixing * dielectric matrix)
  average eigenvalue GAMMA=   0.8510
  2.4037  1.8274  1.8274  1.2867  1.2867  0.7487  0.7487  0.6152  0.6152  0.5624
  0.1249  0.2670  0.2670  0.2639  0.4038  0.3680

 Free energy of the ion-electron system (eV)
  ---------------------------------------------------
  alpha Z        PSCENC =       297.60228517
  Ewald energy   TEWEN  =    100622.81813133
  -Hartree energ DENC   =   -112512.37606412
  -exchange      EXHF   =         0.00000000
  -V(xc)+E(xc)   XCENC  =        52.35400719
  PAW double counting   =     14372.01810724   -13965.93208414
  entropy T*S    EENTRO =        -0.03406454
  eigenvalues    EBANDS =      -640.73648366
  atomic energy  EATOM  =     11678.11952672
  Solvation  Ediel_sol  =         0.00000000
  ---------------------------------------------------
  free energy    TOTEN  =       -96.16663881 eV

  energy without entropy =      -96.13257427  energy(sigma->0) =      -96.15528396


--------------------------------------------------------------------------------------------------------




--------------------------------------- Iteration      1(  22)  ---------------------------------------


    POTLOK:  cpu time    0.0803: real time    0.0805
    SETDIJ:  cpu time    0.0132: real time    0.0132
     EDDAV:  cpu time   12.4067: real time   12.4088
       DOS:  cpu time    0.0050: real time    0.0050
    CHARGE:  cpu time    0.2879: real time    0.2881
    MIXING:  cpu time    0.0117: real time    0.0117
    --------------------------------------------
      LOOP:  cpu time   12.8047: real time   12.8072

 eigenvalue-minimisations  :  5460
 total energy-change (2. order) : 0.2853821E-03  (-0.3057171E-04)
 number of electron     161.0000009 magnetization 
 augmentation part       49.5864623 magnetization 

 Broyden mixing:
  rms(total) = 0.20784E-01    rms(broyden)= 0.20784E-01
  rms(prec ) = 0.25978E-01
  weight for this iteration     100.00

 eigenvalues of (default mixing * dielectric matrix)
  average eigenvalue GAMMA=   0.8953
  2.2995  2.1559  2.1559  1.3918  1.3918  0.8297  0.8297  0.8624  0.6043  0.6043
  0.1249  0.2670  0.2670  0.2640  0.3655  0.4029  0.4029

 Free energy of the ion-electron system (eV)
  ---------------------------------------------------
  alpha Z        PSCENC =       297.60228517
  Ewald energy   TEWEN  =    100622.81813133
  -Hartree energ DENC   =   -112512.96831854
  -exchange      EXHF   =         0.00000000
  -V(xc)+E(xc)   XCENC  =        52.35677626
  PAW double counting   =     14370.86593151   -13964.77028162
  entropy T*S    EENTRO =        -0.03406830
  eigenvalues    EBANDS =      -640.15633596
  atomic energy  EATOM  =     11678.11952672
  Solvation  Ediel_sol  =         0.00000000
  ---------------------------------------------------
  free energy    TOTEN  =       -96.16635343 eV

  energy without entropy =      -96.13228513  energy(sigma->0) =      -96.15499733


--------------------------------------------------------------------------------------------------------




--------------------------------------- Iteration      1(  23)  ---------------------------------------


    POTLOK:  cpu time    0.0857: real time    0.0887
    SETDIJ:  cpu time    0.0114: real time    0.0114
     EDDAV:  cpu time   11.4157: real time   11.4178
       DOS:  cpu time    0.0049: real time    0.0049
    CHARGE:  cpu time    0.2893: real time    0.2893
    MIXING:  cpu time    0.0120: real time    0.0120
    --------------------------------------------
      LOOP:  cpu time   11.8190: real time   11.8241

 eigenvalue-minimisations  :  4816
 total energy-change (2. order) : 0.3007859E-03  (-0.7442180E-04)
 number of electron     161.0000009 magnetization 
 augmentation part       49.5857490 magnetization 

 Broyden mixing:
  rms(total) = 0.96624E-02    rms(broyden)= 0.96617E-02
  rms(prec ) = 0.11867E-01
  weight for this iteration     100.00

 eigenvalues of (default mixing * dielectric matrix)
  average eigenvalue GAMMA=   0.9565
  2.7609  2.7609  1.6849  1.6849  1.2704  1.0247  1.0247  0.8695  0.8695  0.6073
  0.6073  0.1249  0.2670  0.2670  0.2640  0.4043  0.3700  0.3542

 Free energy of the ion-electron system (eV)
  ---------------------------------------------------
  alpha Z        PSCENC =       297.60228517
  Ewald energy   TEWEN  =    100622.81813133
  -Hartree energ DENC   =   -112514.23999299
  -exchange      EXHF   =         0.00000000
  -V(xc)+E(xc)   XCENC  =        52.36260989
  PAW double counting   =     14368.28300891   -13962.16469453
  entropy T*S    EENTRO =        -0.03414446
  eigenvalues    EBANDS =      -638.91278268
  atomic energy  EATOM  =     11678.11952672
  Solvation  Ediel_sol  =         0.00000000
  ---------------------------------------------------
  free energy    TOTEN  =       -96.16605264 eV

  energy without entropy =      -96.13190818  energy(sigma->0) =      -96.15467115


--------------------------------------------------------------------------------------------------------




--------------------------------------- Iteration      1(  24)  ---------------------------------------


    POTLOK:  cpu time    0.0837: real time    0.0839
    SETDIJ:  cpu time    0.0136: real time    0.0134
     EDDAV:  cpu time   11.8143: real time   11.8166
       DOS:  cpu time    0.0054: real time    0.0052
    CHARGE:  cpu time    0.2835: real time    0.2837
    MIXING:  cpu time    0.0106: real time    0.0105
    --------------------------------------------
      LOOP:  cpu time   12.2110: real time   12.2132

 eigenvalue-minimisations  :  5040
 total energy-change (2. order) : 0.1201303E-04  (-0.7794278E-04)
 number of electron     161.0000009 magnetization 
 augmentation part       49.5845339 magnetization 

 Broyden mixing:
  rms(total) = 0.42429E-02    rms(broyden)= 0.42408E-02
  rms(prec ) = 0.50397E-02
  weight for this iteration     100.00

 eigenvalues of (default mixing * dielectric matrix)
  average eigenvalue GAMMA=   1.0237
  3.4982  2.6802  1.8236  1.8236  1.3219  1.3219  1.2468  0.8434  0.8093  0.8093
  0.6069  0.6069  0.1249  0.2670  0.2670  0.2640  0.4040  0.3714  0.3600

 Free energy of the ion-electron system (eV)
  ---------------------------------------------------
  alpha Z        PSCENC =       297.60228517
  Ewald energy   TEWEN  =    100622.81813133
  -Hartree energ DENC   =   -112515.78877667
  -exchange      EXHF   =         0.00000000
  -V(xc)+E(xc)   XCENC  =        52.36939540
  PAW double counting   =     14365.15855267   -13959.01715966
  entropy T*S    EENTRO =        -0.03419143
  eigenvalues    EBANDS =      -637.39380415
  atomic energy  EATOM  =     11678.11952672
  Solvation  Ediel_sol  =         0.00000000
  ---------------------------------------------------
  free energy    TOTEN  =       -96.16604063 eV

  energy without entropy =      -96.13184919  energy(sigma->0) =      -96.15464348


--------------------------------------------------------------------------------------------------------




--------------------------------------- Iteration      1(  25)  ---------------------------------------


    POTLOK:  cpu time    0.0871: real time    0.0929
    SETDIJ:  cpu time    0.0109: real time    0.0109
     EDDAV:  cpu time   11.4007: real time   11.4027
       DOS:  cpu time    0.0101: real time    0.0101
    CHARGE:  cpu time    0.2879: real time    0.2880
    MIXING:  cpu time    0.0108: real time    0.0107
    --------------------------------------------
      LOOP:  cpu time   11.8075: real time   11.8154

 eigenvalue-minimisations  :  4872
 total energy-change (2. order) :-0.8244140E-04  (-0.4515130E-05)
 number of electron     161.0000009 magnetization 
 augmentation part       49.5845174 magnetization 

 Broyden mixing:
  rms(total) = 0.37277E-02    rms(broyden)= 0.37274E-02
  rms(prec ) = 0.46900E-02
  weight for this iteration     100.00

 eigenvalues of (default mixing * dielectric matrix)
  average eigenvalue GAMMA=   1.0608
  3.4018  2.6286  2.2621  2.2621  1.3876  1.3876  1.2387  0.8335  0.8335  0.8540
  0.8540  0.6069  0.6069  0.1249  0.2670  0.2670  0.2640  0.4042  0.3713  0.3596

 Free energy of the ion-electron system (eV)
  ---------------------------------------------------
  alpha Z        PSCENC =       297.60228517
  Ewald energy   TEWEN  =    100622.81813133
  -Hartree energ DENC   =   -112516.58986440
  -exchange      EXHF   =         0.00000000
  -V(xc)+E(xc)   XCENC  =        52.37070305
  PAW double counting   =     14364.84192677   -13958.70129805
  entropy T*S    EENTRO =        -0.03419118
  eigenvalues    EBANDS =      -636.59334247
  atomic energy  EATOM  =     11678.11952672
  Solvation  Ediel_sol  =         0.00000000
  ---------------------------------------------------
  free energy    TOTEN  =       -96.16612307 eV

  energy without entropy =      -96.13193189  energy(sigma->0) =      -96.15472601


--------------------------------------------------------------------------------------------------------




--------------------------------------- Iteration      1(  26)  ---------------------------------------


    POTLOK:  cpu time    0.0820: real time    0.0854
    SETDIJ:  cpu time    0.0096: real time    0.0094
     EDDAV:  cpu time    9.4893: real time    9.4911
       DOS:  cpu time    0.0077: real time    0.0076
[...]
     30      -4.5698      2.00000
     31      -4.4719      2.00000
     32      -4.4192      2.00000
     33      -4.3608      2.00000
     34      -4.2876      2.00000
     35      -4.2036      2.00000
     36      -4.0998      2.00000
     37      -3.9824      2.00000
     38      -3.8747      2.00000
     39      -3.8191      2.00000
     40      -3.7647      2.00000
     41      -3.6487      2.00000
     42      -3.5976      2.00000
     43      -3.5793      2.00000
     44      -3.5424      2.00000
     45      -3.5220      2.00000
     46      -3.4970      2.00000
     47      -3.4844      2.00000
     48      -3.4343      2.00000
     49      -3.3855      2.00000
     50      -3.3824      2.00000
     51      -3.3411      2.00000
     52      -3.2822      2.00000
     53      -3.1441      2.00000
     54      -3.0764      2.00000
     55      -2.8551      2.00000
     56      -2.8063      2.00000
     57      -2.7961      2.00000
     58      -2.7115      2.00000
     59      -2.6427      2.00000
     60      -2.5596      2.00000
     61      -2.3620      2.00000
     62      -2.3258      2.00000
     63      -2.2788      2.00000
     64      -2.2568      2.00000
     65      -2.2154      2.00000
     66      -2.0829      2.00000
     67      -2.0783      2.00000
     68      -1.9659      2.00000
     69      -1.9656      2.00000
     70      -1.8957      2.00000
     71      -1.8247      2.00000
     72      -1.8206      2.00000
     73      -1.7165      2.00000
     74      -1.5817      2.00000
     75      -1.3512      2.00005
     76      -1.3052      2.00018
     77      -1.1846      2.00351
     78      -1.0237      2.04614
     79      -0.8456      1.92617
     80      -0.7265      1.19161
     81      -0.6755      0.76353
     82      -0.6614      0.65040
     83      -0.6525      0.58200
     84      -0.4246     -0.06387
     85      -0.3888     -0.04851
     86      -0.3420     -0.02822
     87       0.7634     -0.00000
     88       1.3756     -0.00000
     89       1.3926     -0.00000
     90       1.5782     -0.00000
     91       1.8710     -0.00000
     92       1.8803     -0.00000
     93       2.5093     -0.00000
     94       2.9342     -0.00000
     95       3.1360     -0.00000
     96       3.9297     -0.00000
     97       4.6231     -0.00000
     98       4.7115     -0.00000
     99       5.3267      0.00000
    100       5.8969      0.00000
    101       5.9540      0.00000
    102       6.2566      0.00000
    103       6.2695      0.00000
    104       6.3445      0.00000
    105       6.4172      0.00000
    106       6.6533      0.00000
    107       6.7791      0.00000
    108       7.0084      0.00000
    109       7.0977      0.00000
    110       7.1536      0.00000
    111       7.3344      0.00000
    112       7.5007      0.00000

 k-point    20 :      -0.4375    0.4375    0.0000
  band No.  band energies     occupation 
      1      -8.1647      2.00000
      2      -8.1245      2.00000
      3      -7.2165      2.00000
      4      -7.1226      2.00000
      5      -6.6670      2.00000
      6      -6.4641      2.00000
      7      -6.3429      2.00000
      8      -6.3258      2.00000
      9      -6.2156      2.00000
     10      -6.1299      2.00000
     11      -6.0617      2.00000
     12      -6.0245      2.00000
     13      -5.9811      2.00000
     14      -5.8226      2.00000
     15      -5.7661      2.00000
     16      -5.5758      2.00000
     17      -5.5487      2.00000
     18      -5.4650      2.00000
     19      -5.4239      2.00000
     20      -5.3335      2.00000
     21      -5.1862      2.00000
     22      -5.1005      2.00000
     23      -5.0634      2.00000
     24      -5.0166      2.00000
     25      -4.9922      2.00000
     26      -4.9538      2.00000
     27      -4.9071      2.00000
     28      -4.8948      2.00000
     29      -4.6887      2.00000
     30      -4.5501      2.00000
     31      -4.4901      2.00000
     32      -4.3906      2.00000
     33      -4.3809      2.00000
     34      -4.3450      2.00000
     35      -4.2533      2.00000
     36      -4.1931      2.00000
     37      -4.1024      2.00000
     38      -4.0868      2.00000
     39      -3.9781      2.00000
     40      -3.9583      2.00000
     41      -3.9220      2.00000
     42      -3.7765      2.00000
     43      -3.6416      2.00000
     44      -3.6305      2.00000
     45      -3.6018      2.00000
     46      -3.5704      2.00000
     47      -3.5388      2.00000
     48      -3.5203      2.00000
     49      -3.4859      2.00000
     50      -3.4715      2.00000
     51      -3.4021      2.00000
     52      -3.2126      2.00000
     53      -3.1960      2.00000
     54      -2.8915      2.00000
     55      -2.8219      2.00000
     56      -2.7907      2.00000
     57      -2.7572      2.00000
     58      -2.7395      2.00000
     59      -2.5506      2.00000
     60      -2.5110      2.00000
     61      -2.4532      2.00000
     62      -2.3621      2.00000
     63      -2.2452      2.00000
     64      -2.2365      2.00000
     65      -2.1321      2.00000
     66      -2.0977      2.00000
     67      -2.0663      2.00000
     68      -1.9611      2.00000
     69      -1.9333      2.00000
     70      -1.8529      2.00000
     71      -1.7998      2.00000
     72      -1.7237      2.00000
     73      -1.6406      2.00000
     74      -1.5856      2.00000
     75      -1.3862      2.00002
     76      -1.3241      2.00010
     77      -1.2298      2.00127
     78      -1.0509      2.03402
     79      -0.8830      2.02157
     80      -0.8424      1.91496
     81      -0.7960      1.69656
     82      -0.7290      1.21223
     83      -0.5862      0.17142
     84      -0.5190     -0.03051
     85      -0.4855     -0.06434
     86      -0.3233     -0.02167
     87       0.3517     -0.00000
     88       0.5516     -0.00000
     89       0.8834     -0.00000
     90       1.5966     -0.00000
     91       1.6323     -0.00000
     92       2.4767     -0.00000
     93       2.7882     -0.00000
     94       3.2923     -0.00000
     95       3.6383     -0.00000
     96       4.0785     -0.00000
     97       4.4234     -0.00000
     98       5.1967      0.00000
     99       5.4330      0.00000
    100       5.6581      0.00000
    101       5.8939      0.00000
    102       5.9278      0.00000
    103       6.3394      0.00000
    104       6.3997      0.00000
    105       6.4284      0.00000
    106       6.7822      0.00000
    107       6.8234      0.00000
    108       6.8763      0.00000
    109       6.9285      0.00000
    110       6.9826      0.00000
    111       7.2866      0.00000
    112       7.5939      0.00000


--------------------------------------------------------------------------------------------------------


 soft charge-density along one line, spin component           1
         0         1         2         3         4         5         6         7         8         9
 total charge-density along one line
 
 pseudopotential strength for first ion, spin component:           1
 -6.851   0.000   0.000  -0.011   0.000  -6.943   0.000   0.000
  0.000  -6.725  -0.000   0.000  -0.011   0.000  -6.821  -0.000
  0.000  -0.000  -6.719  -0.000   0.000   0.000  -0.000  -6.816
 -0.011   0.000  -0.000  -6.725   0.000  -0.010   0.000  -0.000
  0.000  -0.011   0.000   0.000  -6.851   0.000  -0.010   0.000
 -6.943   0.000   0.000  -0.010   0.000  -7.020   0.000   0.000
  0.000  -6.821  -0.000   0.000  -0.010   0.000  -6.901  -0.000
  0.000  -0.000  -6.816  -0.000   0.000   0.000  -0.000  -6.896
 -0.010   0.000  -0.000  -6.821   0.000  -0.010   0.000  -0.000
  0.000  -0.010   0.000   0.000  -6.943   0.000  -0.010   0.000
  0.000  -0.000  -0.038  -0.000   0.000   0.000  -0.000  -0.037
  0.000  -0.000  -0.056  -0.000   0.000   0.000  -0.000  -0.055
 -0.000  -0.003  -0.000  -0.000   0.000  -0.000  -0.003  -0.000
 -0.000  -0.000  -0.007  -0.000  -0.000  -0.000  -0.000  -0.007
  0.000  -0.000  -0.000  -0.003  -0.000   0.000  -0.000  -0.000
 -0.000  -0.002  -0.000  -0.000   0.001  -0.000  -0.001  -0.000
 -0.000  -0.000  -0.008  -0.000  -0.000  -0.000  -0.000  -0.007
  0.001  -0.000  -0.000  -0.002  -0.000   0.001  -0.000  -0.000
 total augmentation occupancy for first ion, spin component:           1
  3.046   0.000  -0.000  -0.203   0.000  -2.012  -0.000   0.000   0.040   0.000  -0.000   0.000   0.000   0.000  -0.045  -0.000
  0.000   3.973   0.000   0.000  -0.203   0.000  -2.121  -0.000  -0.000   0.048   0.000   0.000  -0.239   0.000  -0.000   0.012
 -0.000   0.000   4.142   0.000  -0.000   0.000  -0.000  -2.571   0.000   0.000   0.903  -0.151   0.000  -0.291   0.000  -0.000
 -0.203   0.000   0.000   3.973  -0.000   0.048  -0.000   0.000  -2.121   0.000   0.000   0.000  -0.000   0.000  -0.239   0.000
  0.000  -0.203  -0.000  -0.000   3.046   0.000   0.040   0.000   0.000  -2.012  -0.000   0.000  -0.045   0.000  -0.000   0.003
 -2.012  -0.000   0.000   0.048   0.000   2.605  -0.000  -0.000   0.067   0.000   0.000  -0.000  -0.000  -0.000   0.045   0.000
 -0.000  -2.121  -0.000  -0.000   0.040  -0.000   2.110  -0.000   0.000   0.067  -0.000   0.000   0.226  -0.000   0.000  -0.015
  0.000  -0.000  -2.571   0.000   0.000  -0.000  -0.000   2.767   0.000  -0.000  -0.783   0.104  -0.000   0.347  -0.000   0.000
  0.040   0.000   0.000  -2.121   0.000   0.067   0.000  -0.000   2.110   0.000   0.000   0.000   0.000  -0.000   0.226  -0.000
 -0.000   0.048   0.000   0.000  -2.012   0.000   0.067  -0.000   0.000   2.605   0.000  -0.000   0.045  -0.000   0.000  -0.003
 -0.000   0.000   0.903   0.000  -0.000   0.000   0.000  -0.783  -0.000   0.000   2.270  -0.453  -0.000   0.174   0.000   0.000
  0.000   0.000  -0.151   0.000   0.000  -0.000   0.000   0.104   0.000  -0.000  -0.453   0.113   0.000  -0.063   0.000   0.000
 -0.000  -0.239   0.000  -0.000  -0.045  -0.000   0.226  -0.000   0.000   0.045   0.000   0.000   0.269  -0.000   0.000  -0.014
  0.000  -0.000  -0.291   0.000   0.000  -0.000   0.000   0.347  -0.000  -0.000   0.174  -0.063   0.000   0.143  -0.000  -0.000
 -0.045  -0.000   0.000  -0.239  -0.000   0.045   0.000  -0.000   0.226   0.000   0.000   0.000   0.000  -0.000   0.269  -0.000
 -0.000   0.012  -0.000   0.000   0.003   0.000  -0.015   0.000  -0.000  -0.003   0.000   0.000  -0.014   0.000  -0.000   0.001
 -0.000   0.000   0.004  -0.000  -0.000   0.000  -0.000  -0.018   0.000   0.000  -0.017   0.005   0.000  -0.008   0.000   0.000
  0.003   0.000  -0.000   0.012   0.000  -0.003  -0.000   0.000  -0.015  -0.000  -0.000   0.000  -0.000   0.000  -0.014   0.000


------------------------ aborting loop because EDIFF is reached ----------------------------------------



 DIPCOR: dipole corrections for dipol
 direction  3 min pos   274,
 dipolmoment           0.000000      0.000000     -0.053743 electrons x Angstroem
 Tr[quadrupol]      -948.680449

 energy correction for charged system         0.000000 eV
 dipol+quadrupol energy correction            0.000317 eV
 added-field ion interaction          0.000000 eV  (added to PSCEN)

 
  *************** adding dipol energy to TOTEN NOW **************** 
    CHARGE:  cpu time    0.2698: real time    0.2698
    FORLOC:  cpu time    0.0075: real time    0.0074
    FORNL :  cpu time    1.7421: real time    1.7425
    STRESS:  cpu time    4.4128: real time    4.4138
    FORCOR:  cpu time    0.0645: real time    0.0644
    FORHAR:  cpu time    0.0189: real time    0.0189
    MIXING:  cpu time    0.0019: real time    0.0019
    OFIELD:  cpu time    0.0000: real time    0.0000

  FORCE on cell =-STRESS in cart. coord.  units (eV):
  Direction    XX          YY          ZZ          XY          YZ          ZX
  --------------------------------------------------------------------------------------
  Alpha Z   297.60229   297.60229   297.60229
  Ewald  107441.99204107441.99204************     0.00000    -0.00000    -0.00000
  Hartree109781.85974109781.85974************    -0.00000     0.00000     0.00000
  E(xc)    -710.92365  -710.92367  -715.70521     0.00001    -0.00000    -0.00001
  Local  ************************222503.13070     0.00108    -0.00004    -0.00008
  n-local   114.30002    37.57968    60.78154   -21.95096    -4.59721     2.53712
  augment   832.18403   832.18498   860.49022    -0.00082     0.00001     0.00001
  Kinetic  2322.51360  2301.05694  2379.84563    -5.61277    -6.91242     4.51950
  Fock        0.00000     0.00000     0.00000     0.00000     0.00000     0.00000
  -------------------------------------------------------------------------------------
  Total     -13.21745   -13.21745    -1.27270     0.00000     0.00000     0.00000
  in kB     -25.69589   -25.69589    -2.47425     0.00000     0.00000     0.00000
  external pressure =      -17.96 kB  Pullay stress =        0.00 kB


 VOLUME and BASIS-vectors are now :
 -----------------------------------------------------------------------------
  energy-cutoff  :      350.00
  volume of cell :      824.13
      direct lattice vectors                 reciprocal lattice vectors
     5.557859300  0.000000000  0.000000000     0.179925390 -0.103879972  0.000000000
     2.778929650  4.813247345  0.000000000     0.000000000  0.207759944  0.000000000
     0.000000000  0.000000000 30.806959674     0.000000000  0.000000000  0.032460198

  length of vectors
     5.557859300  5.557859300 30.806959674     0.207759944  0.207759944  0.032460198


 FORCES acting on ions
    electron-ion (+dipol)            ewald-force                    non-local-force                 convergence-correction
 -----------------------------------------------------------------------------------------------
   0.866E-06 0.500E-06 0.284E+04   -.179E-11 -.103E-11 -.284E+04   0.217E-18 0.000E+00 -.878E+00   0.849E-09 0.490E-09 -.164E-01
   0.750E-06 -.259E+01 0.284E+04   0.256E-11 0.264E+01 -.284E+04   0.260E-17 0.466E-01 -.954E+00   -.349E-08 0.920E-02 -.177E-01
   -.224E+01 0.129E+01 0.284E+04   0.229E+01 -.132E+01 -.284E+04   0.403E-01 -.233E-01 -.954E+00   0.796E-02 -.460E-02 -.177E-01
   0.224E+01 0.129E+01 0.284E+04   -.229E+01 -.132E+01 -.284E+04   -.403E-01 -.233E-01 -.954E+00   -.796E-02 -.460E-02 -.177E-01
   -.866E+00 -.500E+00 0.962E+03   0.841E+00 0.486E+00 -.961E+03   0.367E-01 0.212E-01 -.458E+00   0.996E-02 0.575E-02 0.177E-01
   0.866E+00 -.500E+00 0.962E+03   -.841E+00 0.486E+00 -.961E+03   -.367E-01 0.212E-01 -.458E+00   -.996E-02 0.575E-02 0.177E-01
   0.744E-06 0.100E+01 0.962E+03   -.111E-12 -.971E+00 -.961E+03   0.173E-17 -.423E-01 -.458E+00   0.741E-07 -.115E-01 0.177E-01
   0.765E-06 0.442E-06 0.980E+03   0.373E-11 0.243E-11 -.980E+03   -.325E-18 -.163E-17 0.817E-01   0.266E-08 0.154E-08 0.328E-01
   -.253E-06 0.321E+00 -.924E+03   0.689E-12 -.710E+00 0.924E+03   -.694E-17 0.399E+00 0.153E+00   -.150E-06 0.163E-01 0.144E+00
   -.816E-06 -.471E-06 -.920E+03   -.791E-11 -.173E-10 0.919E+03   0.184E-17 -.434E-18 0.291E+00   -.156E-08 -.899E-09 0.143E+00
   -.278E+00 -.160E+00 -.924E+03   0.615E+00 0.355E+00 0.924E+03   -.346E+00 -.200E+00 0.153E+00   -.141E-01 -.816E-02 0.144E+00
   0.278E+00 -.160E+00 -.924E+03   -.615E+00 0.355E+00 0.924E+03   0.346E+00 -.200E+00 0.153E+00   0.141E-01 -.816E-02 0.144E+00
   -.318E-06 -.184E-06 -.280E+04   -.112E-10 -.646E-11 0.280E+04   -.124E-16 0.260E-17 -.641E+01   0.550E-08 0.318E-08 0.336E-01
   0.414E-06 -.335E+01 -.278E+04   0.944E-11 0.323E+01 0.278E+04   0.173E-17 0.133E+00 0.115E+01   0.594E-07 -.461E-02 0.768E-01
   -.290E+01 0.167E+01 -.278E+04   0.280E+01 -.162E+01 0.278E+04   0.115E+00 -.663E-01 0.115E+01   -.399E-02 0.230E-02 0.768E-01
   0.290E+01 0.167E+01 -.278E+04   -.280E+01 -.162E+01 0.278E+04   -.115E+00 -.663E-01 0.115E+01   0.399E-02 0.230E-02 0.768E-01
   -.746E-06 -.430E-06 -.376E+03   -.461E-12 -.269E-12 0.379E+03   0.117E-18 -.102E-19 -.310E+01   -.176E-10 -.101E-10 0.272E-02
 -----------------------------------------------------------------------------------------------
   -.688E-06 -.397E-06 0.948E+01   -.166E-13 0.329E-13 0.205E-11   -.138E-16 -.694E-16 -.103E+02   0.189E-07 0.109E-07 0.857E+00
 
 
 POSITION                                       TOTAL-FORCE (eV/Angst)
 -----------------------------------------------------------------------------------
      0.00000      0.00000     12.00000         0.000000      0.000000      0.046767
      2.77893      0.00000     12.00000         0.000000      0.112622     -0.024378
      1.38946      2.40662     12.00000         0.097533     -0.056311     -0.024378
      4.16839      2.40662     12.00000        -0.097533     -0.056311     -0.024378
      1.38832      0.80154     14.33833         0.021415      0.012364     -0.001541
      4.16954      0.80154     14.33833        -0.021415      0.012364     -0.001541
      2.77893      3.21016     14.33833         0.000000     -0.024727     -0.001541
      5.55786      3.20883     14.30267         0.000000      0.000000     -0.011491
      5.55786      1.59830     16.63736         0.000000      0.026087      0.032583
      2.77893      1.60442     16.63406         0.000000      0.000000     -0.009286
      6.95262      4.01410     16.63736        -0.022592     -0.013043      0.032583
      4.16310      4.01410     16.63736         0.022592     -0.013043      0.032583
     -0.00000      0.00000     19.07085         0.000000      0.000000      0.018571
      2.77893     -0.00469     18.94595         0.000000      0.010298     -0.024339
      1.38540      2.40897     18.94595         0.008918     -0.005149     -0.024339
      4.17246      2.40897     18.94595        -0.008918     -0.005149     -0.024339
     -0.00000      0.00000     20.62632         0.000000      0.000000      0.008464
 -----------------------------------------------------------------------------------
    total drift:                               -0.000001     -0.000000     -0.003007


--------------------------------------------------------------------------------------------------------



  FREE ENERGIE OF THE ION-ELECTRON SYSTEM (eV)
  ---------------------------------------------------
  free  energy   TOTEN  =       -96.67408134 eV

  energy  without entropy=      -96.64723890  energy(sigma->0) =      -96.66513386
 
 d Force = 0.2885726E-03[ 0.159E-04, 0.561E-03]  d Energy = 0.2859913E-03 0.258E-05
 d Force = 0.1770788E+02[ 0.177E+02, 0.177E+02]  d Ewald  = 0.1770788E+02-0.602E-05


--------------------------------------------------------------------------------------------------------


    POTLOK:  cpu time    0.0813: real time    0.0818


--------------------------------------------------------------------------------------------------------




--------------------------------------------------------------------------------------------------------


  
 reached required accuracy - stopping structural energy minimisation
     LOOP+:  cpu time   85.8925: real time   86.0041
    4ORBIT:  cpu time    0.0000: real time    0.0000

 total amount of memory used by VASP MPI-rank0   128838. kBytes
=======================================================================

   base      :      30000. kBytes
   nonl-proj :      74483. kBytes
   fftplans  :       1549. kBytes
   grid      :       6343. kBytes
   one-center:        264. kBytes
   wavefun   :      16199. kBytes
 
  
  
 General timing and accounting informations for this job:
 ========================================================
  
                  Total CPU time used (sec):     2595.580
                            User time (sec):     2033.751
                          System time (sec):      561.829
                         Elapsed time (sec):     2597.723
  
                   Maximum memory used (kb):      219240.
                   Average memory used (kb):           0.
  
                          Minor page faults:       278481
                          Major page faults:            3
                 Voluntary context switches:         3377
