unknown system                          
           1
     5.557859    0.000000    0.000000
     2.778930    4.813247    0.000000
     0.000000    0.000000   30.806960
   Pt   H 
  16   1
Direct configuration=     1
   0.00000000  0.00000000  0.38952237
   0.50000000  0.00000000  0.38952237
   0.00000000  0.50000000  0.38952237
   0.50000000  0.50000000  0.38952237
   0.16666667  0.16666667  0.46317412
   0.66666667  0.16666667  0.46317412
   0.16666667  0.66666667  0.46317412
   0.66666667  0.66666667  0.46317412
   0.83333333  0.33333333  0.53682588
   0.33333333  0.33333333  0.53682588
   0.83333333  0.83333333  0.53682588
   0.33333333  0.83333333  0.53682588
   0.00000000  0.00000000  0.61047763
   0.50000000  0.00000000  0.61047763
   0.00000000  0.50000000  0.61047763
   0.50000000  0.50000000  0.61047763
   0.00000000  0.00000000  0.66890598
Direct configuration=     2
   0.00000000  0.00000000  0.38952237
   0.50000000  0.00000000  0.38952237
   0.00000000  0.50000000  0.38952237
   0.50000000  0.50000000  0.38952237
   0.16671226  0.16671226  0.46358904
   0.66657548  0.16671226  0.46358904
   0.16671226  0.66657548  0.46358904
   0.66666667  0.66666667  0.46308062
   0.83340971  0.33318058  0.53656959
   0.33333333  0.33333333  0.53654586
   0.83340971  0.83340971  0.53656959
   0.33318058  0.83340971  0.53656959
   0.00000000  0.00000000  0.61549992
   0.50019736 -0.00039472  0.61087917
  -0.00039472  0.50019736  0.61087917
   0.50019736  0.50019736  0.61087917
   0.00000000 -0.00000000  0.66508155
Direct configuration=     3
   0.00000000  0.00000000  0.38952237
   0.50000000  0.00000000  0.38952237
   0.00000000  0.50000000  0.38952237
   0.50000000  0.50000000  0.38952237
   0.16670477  0.16670477  0.46352083
   0.66659047  0.16670477  0.46352083
   0.16670477  0.66659047  0.46352083
   0.66666667  0.66666667  0.46309599
   0.83339716  0.33320569  0.53661173
   0.33333333  0.33333333  0.53659190
   0.83339716  0.83339716  0.53661173
   0.33320569  0.83339716  0.53661173
   0.00000000  0.00000000  0.61467427
   0.50016492 -0.00032983  0.61081316
  -0.00032983  0.50016492  0.61081316
   0.50016492  0.50016492  0.61081316
   0.00000000 -0.00000000  0.66571027
Direct configuration=     4
   0.00000000  0.00000000  0.38952237
   0.50000000  0.00000000  0.38952237
   0.00000000  0.50000000  0.38952237
   0.50000000  0.50000000  0.38952237
   0.16670749  0.16670749  0.46354562
   0.66658502  0.16670749  0.46354562
   0.16670749  0.66658502  0.46354562
   0.66666667  0.66666667  0.46309040
   0.83340172  0.33319656  0.53659642
   0.33333333  0.33333333  0.53657517
   0.83340172  0.83340172  0.53659642
   0.33319656  0.83340172  0.53659642
   0.00000000  0.00000000  0.61497433
   0.50017671 -0.00035341  0.61083715
  -0.00035341  0.50017671  0.61083715
   0.50017671  0.50017671  0.61083715
   0.00000000 -0.00000000  0.66548179
Direct configuration=     5
   0.00000000  0.00000000  0.38952237
   0.50000000  0.00000000  0.38952237
   0.00000000  0.50000000  0.38952237
   0.50000000  0.50000000  0.38952237
   0.16670765  0.16670765  0.46354712
   0.66658469  0.16670765  0.46354712
   0.16670765  0.66658469  0.46354712
   0.66666667  0.66666667  0.46309007
   0.83340199  0.33319601  0.53659549
   0.33333333  0.33333333  0.53657416
   0.83340199  0.83340199  0.53659549
   0.33319601  0.83340199  0.53659549
   0.00000000  0.00000000  0.61499244
   0.50017742 -0.00035484  0.61083860
  -0.00035484  0.50017742  0.61083860
   0.50017742  0.50017742  0.61083860
   0.00000000 -0.00000000  0.66546799
Direct configuration=     6
   0.00000000  0.00000000  0.38952237
   0.50000000  0.00000000  0.38952237
   0.00000000  0.50000000  0.38952237
   0.50000000  0.50000000  0.38952237
   0.16668890  0.16668890  0.46363969
   0.66662220  0.16668890  0.46363969
   0.16668890  0.66662220  0.46363969
   0.66666667  0.66666667  0.46277038
   0.83417885  0.33164230  0.53700039
   0.33333333  0.33333333  0.53674645
   0.83417885  0.83417885  0.53700039
   0.33164230  0.83417885  0.53700039
  -0.00000000 -0.00000000  0.61516185
   0.50037826 -0.00075651  0.61104860
  -0.00075651  0.50037826  0.61104860
   0.50037826  0.50037826  0.61104860
  -0.00000000 -0.00000000  0.66544773
Direct configuration=     7
   0.00000000  0.00000000  0.38952237
   0.50000000  0.00000000  0.38952237
   0.00000000  0.50000000  0.38952237
   0.50000000  0.50000000  0.38952237
   0.16667727  0.16667727  0.46369710
   0.66664545  0.16667727  0.46369710
   0.16667727  0.66664545  0.46369710
   0.66666667  0.66666667  0.46257216
   0.83466054  0.33067892  0.53725145
   0.33333333  0.33333333  0.53685329
   0.83466054  0.83466054  0.53725145
   0.33067892  0.83466054  0.53725145
  -0.00000000 -0.00000000  0.61526689
   0.50050279 -0.00100557  0.61117881
  -0.00100557  0.50050279  0.61117881
   0.50050279  0.50050279  0.61117881
  -0.00000000 -0.00000000  0.66543516
Direct configuration=     8
   0.00000000  0.00000000  0.38952237
   0.50000000  0.00000000  0.38952237
   0.00000000  0.50000000  0.38952237
   0.50000000  0.50000000  0.38952237
   0.16660875  0.16660875  0.46392152
   0.66678250  0.16660875  0.46392152
   0.16660875  0.66678250  0.46392152
   0.66666667  0.66666667  0.46266410
   0.83434756  0.33130488  0.53760525
   0.33333333  0.33333333  0.53712133
   0.83434756  0.83434756  0.53760525
   0.33130488  0.83434756  0.53760525
  -0.00000000 -0.00000000  0.61531974
   0.50055598 -0.00111196  0.61154453
  -0.00111196  0.50055598  0.61154453
   0.50055598  0.50055598  0.61154453
  -0.00000000 -0.00000000  0.66580811
Direct configuration=     9
   0.00000000  0.00000000  0.38952237
   0.50000000  0.00000000  0.38952237
   0.00000000  0.50000000  0.38952237
   0.50000000  0.50000000  0.38952237
   0.16644995  0.16644995  0.46444161
   0.66710009  0.16644995  0.46444161
   0.16644995  0.66710009  0.46444161
   0.66666667  0.66666667  0.46287716
   0.83362226  0.33275548  0.53842514
   0.33333333  0.33333333  0.53774248
   0.83362226  0.83362226  0.53842514
   0.33275548  0.83362226  0.53842514
  -0.00000000 -0.00000000  0.61544223
   0.50067925 -0.00135850  0.61239203
  -0.00135850  0.50067925  0.61239203
   0.50067925  0.50067925  0.61239203
  -0.00000000 -0.00000000  0.66667238
Direct configuration=    10
   0.00000000  0.00000000  0.38952237
   0.50000000  0.00000000  0.38952237
   0.00000000  0.50000000  0.38952237
   0.50000000  0.50000000  0.38952237
   0.16642874  0.16642874  0.46455777
   0.66714251  0.16642874  0.46455777
   0.16642874  0.66714251  0.46455777
   0.66666667  0.66666667  0.46298311
   0.83348336  0.33303329  0.53856104
   0.33333333  0.33333333  0.53789863
   0.83348336  0.83348336  0.53856104
   0.33303329  0.83348336  0.53856104
  -0.00000000 -0.00000000  0.61566190
   0.50062882 -0.00125764  0.61259887
  -0.00125764  0.50062882  0.61259887
   0.50062882  0.50062882  0.61259887
  -0.00000000 -0.00000000  0.66674413
Direct configuration=    11
   0.00000000  0.00000000  0.38952237
   0.50000000  0.00000000  0.38952237
   0.00000000  0.50000000  0.38952237
   0.50000000  0.50000000  0.38952237
   0.16636511  0.16636511  0.46490627
   0.66726978  0.16636511  0.46490627
   0.16636511  0.66726978  0.46490627
   0.66666667  0.66666667  0.46330096
   0.83306664  0.33386671  0.53896873
   0.33333333  0.33333333  0.53836708
   0.83306664  0.83306664  0.53896873
   0.33386671  0.83306664  0.53896873
  -0.00000000 -0.00000000  0.61632089
   0.50047753 -0.00095506  0.61321938
  -0.00095506  0.50047753  0.61321938
   0.50047753  0.50047753  0.61321938
  -0.00000000 -0.00000000  0.66695939
Direct configuration=    12
   0.00000000  0.00000000  0.38952237
   0.50000000  0.00000000  0.38952237
   0.00000000  0.50000000  0.38952237
   0.50000000  0.50000000  0.38952237
   0.16623784  0.16623784  0.46560325
   0.66752432  0.16623784  0.46560325
   0.16623784  0.66752432  0.46560325
   0.66666667  0.66666667  0.46393666
   0.83223322  0.33553356  0.53978410
   0.33333333  0.33333333  0.53930399
   0.83223322  0.83223322  0.53978410
   0.33553356  0.83223322  0.53978410
  -0.00000000 -0.00000000  0.61763887
   0.50017495 -0.00034991  0.61446042
  -0.00034991  0.50017495  0.61446042
   0.50017495  0.50017495  0.61446042
  -0.00000000 -0.00000000  0.66738990
Direct configuration=    13
   0.00000000  0.00000000  0.38952237
   0.50000000  0.00000000  0.38952237
   0.00000000  0.50000000  0.38952237
   0.50000000  0.50000000  0.38952237
   0.16629666  0.16629666  0.46528109
   0.66740667  0.16629666  0.46528109
   0.16629666  0.66740667  0.46528109
   0.66666667  0.66666667  0.46364283
   0.83261845  0.33476311  0.53940722
   0.33333333  0.33333333  0.53887093
   0.83261845  0.83261845  0.53940722
   0.33476311  0.83261845  0.53940722
  -0.00000000 -0.00000000  0.61702967
   0.50031481 -0.00062962  0.61388679
  -0.00062962  0.50031481  0.61388679
   0.50031481  0.50031481  0.61388679
  -0.00000000 -0.00000000  0.66719091
Direct configuration=    14
   0.00000000  0.00000000  0.38952237
   0.50000000  0.00000000  0.38952237
   0.00000000  0.50000000  0.38952237
   0.50000000  0.50000000  0.38952237
   0.16636473  0.16636473  0.46534295
   0.66727054  0.16636473  0.46534295
   0.16636473  0.66727054  0.46534295
   0.66666667  0.66666667  0.46375965
   0.83293245  0.33413509  0.53952046
   0.33333333  0.33333333  0.53908894
   0.83293245  0.83293245  0.53952046
   0.33413509  0.83293245  0.53952046
  -0.00000000 -0.00000000  0.61721123
   0.50021033 -0.00042065  0.61411642
  -0.00042065  0.50021033  0.61411642
   0.50021033  0.50021033  0.61411642
  -0.00000000 -0.00000000  0.66741923
Direct configuration=    15
   0.00000000  0.00000000  0.38952237
   0.50000000  0.00000000  0.38952237
   0.00000000  0.50000000  0.38952237
   0.50000000  0.50000000  0.38952237
   0.16654894  0.16654894  0.46551038
   0.66690212  0.16654894  0.46551038
   0.16654894  0.66690212  0.46551038
   0.66666667  0.66666667  0.46407582
   0.83378229  0.33243541  0.53982695
   0.33333333  0.33333333  0.53967895
   0.83378229  0.83378229  0.53982695
   0.33243541  0.83378229  0.53982695
  -0.00000000 -0.00000000  0.61770261
   0.49992754  0.00014491  0.61473788
   0.00014491  0.49992754  0.61473788
   0.49992754  0.49992754  0.61473788
  -0.00000000 -0.00000000  0.66803717
Direct configuration=    16
   0.00000000  0.00000000  0.38952237
   0.50000000  0.00000000  0.38952237
   0.00000000  0.50000000  0.38952237
   0.50000000  0.50000000  0.38952237
   0.16662639  0.16662639  0.46545869
   0.66674723  0.16662639  0.46545869
   0.16662639  0.66674723  0.46545869
   0.66666667  0.66666667  0.46412196
   0.83373319  0.33253363  0.53989052
   0.33333333  0.33333333  0.53977860
   0.83373319  0.83373319  0.53989052
   0.33253363  0.83373319  0.53989052
  -0.00000000 -0.00000000  0.61783943
   0.50010205 -0.00020410  0.61479514
  -0.00020410  0.50010205  0.61479514
   0.50010205  0.50010205  0.61479514
  -0.00000000 -0.00000000  0.66825906
Direct configuration=    17
   0.00000000  0.00000000  0.38952237
   0.50000000  0.00000000  0.38952237
   0.00000000  0.50000000  0.38952237
   0.50000000  0.50000000  0.38952237
   0.16677990  0.16677990  0.46535623
   0.66644020  0.16677990  0.46535623
   0.16677990  0.66644020  0.46535623
   0.66666667  0.66666667  0.46421341
   0.83363585  0.33272830  0.54001654
   0.33333333  0.33333333  0.53997613
   0.83363585  0.83363585  0.54001654
   0.33272830  0.83363585  0.54001654
  -0.00000000 -0.00000000  0.61811065
   0.50044796 -0.00089592  0.61490865
  -0.00089592  0.50044796  0.61490865
   0.50044796  0.50044796  0.61490865
  -0.00000000 -0.00000000  0.66869888
Direct configuration=    18
   0.00000000  0.00000000  0.38952237
   0.50000000  0.00000000  0.38952237
   0.00000000  0.50000000  0.38952237
   0.50000000  0.50000000  0.38952237
   0.16672573  0.16672573  0.46534013
   0.66654854  0.16672573  0.46534013
   0.16672573  0.66654854  0.46534013
   0.66666667  0.66666667  0.46425632
   0.83365519  0.33268961  0.54004193
   0.33333333  0.33333333  0.54001508
   0.83365519  0.83365519  0.54004193
   0.33268961  0.83365519  0.54004193
  -0.00000000 -0.00000000  0.61850806
   0.50057975 -0.00115951  0.61495310
  -0.00115951  0.50057975  0.61495310
   0.50057975  0.50057975  0.61495310
  -0.00000000 -0.00000000  0.66889526
Direct configuration=    19
   0.00000000  0.00000000  0.38952237
   0.50000000  0.00000000  0.38952237
   0.00000000  0.50000000  0.38952237
   0.50000000  0.50000000  0.38952237
   0.16670898  0.16670898  0.46533516
   0.66658205  0.16670898  0.46533516
   0.16670898  0.66658205  0.46533516
   0.66666667  0.66666667  0.46426959
   0.83366118  0.33267765  0.54004978
   0.33333333  0.33333333  0.54002713
   0.83366118  0.83366118  0.54004978
   0.33267765  0.83366118  0.54004978
  -0.00000000 -0.00000000  0.61863097
   0.50062052 -0.00124103  0.61496685
  -0.00124103  0.50062052  0.61496685
   0.50062052  0.50062052  0.61496685
  -0.00000000 -0.00000000  0.66895600
Direct configuration=    20
   0.00000000  0.00000000  0.38952237
   0.50000000  0.00000000  0.38952237
   0.00000000  0.50000000  0.38952237
   0.50000000  0.50000000  0.38952237
   0.16661258  0.16661258  0.46538316
   0.66677484  0.16661258  0.46538316
   0.16661258  0.66677484  0.46538316
   0.66666667  0.66666667  0.46426840
   0.83382573  0.33234853  0.54005097
   0.33333333  0.33333333  0.53998314
   0.83382573  0.83382573  0.54005097
   0.33234853  0.83382573  0.54005097
  -0.00000000  0.00000000  0.61885173
   0.50054922 -0.00109844  0.61497878
  -0.00109844  0.50054922  0.61497878
   0.50054922  0.50054922  0.61497878
  -0.00000000  0.00000000  0.66926549
Direct configuration=    21
   0.00000000  0.00000000  0.38952237
   0.50000000  0.00000000  0.38952237
   0.00000000  0.50000000  0.38952237
   0.50000000  0.50000000  0.38952237
   0.16652883  0.16652883  0.46542487
   0.66694234  0.16652883  0.46542487
   0.16652883  0.66694234  0.46542487
   0.66666667  0.66666667  0.46426737
   0.83396869  0.33206261  0.54005199
   0.33333333  0.33333333  0.53994492
   0.83396869  0.83396869  0.54005199
   0.33206261  0.83396869  0.54005199
  -0.00000000  0.00000000  0.61904352
   0.50048728 -0.00097456  0.61498914
  -0.00097456  0.50048728  0.61498914
   0.50048728  0.50048728  0.61498914
  -0.00000000  0.00000000  0.66953436
