   17   17    1    1
  0.4847811E+02  0.5557859E-09  0.5557859E-09  0.3080696E-08  0.5000000E-15
  1.000000000000000E-004
  CAR 
 unknown system                          
    161     52     96
 
  0.6250000E-01  0.6250000E-01  0.0000000E+00  0.2083333E-01
    1      -10.042916   1.000000
    2       -8.818182   1.000000
    3       -7.750172   1.000000
    4       -7.607257   1.000000
    5       -7.323798   1.000000
    6       -7.292125   1.000000
    7       -7.285548   1.000000
    8       -7.153952   1.000000
    9       -7.134845   1.000000
   10       -7.128935   1.000000
   11       -6.765621   1.000000
   12       -6.682889   1.000000
   13       -6.677129   1.000000
   14       -6.642996   1.000000
   15       -6.634756   1.000000
   16       -6.480970   1.000000
   17       -6.445813   1.000000
   18       -6.421768   1.000000
   19       -6.388611   1.000000
   20       -5.928116   1.000000
   21       -5.681744   1.000000
   22       -5.667311   1.000000
   23       -5.421635   1.000000
   24       -4.830223   1.000000
   25       -4.806506   1.000000
   26       -4.687698   1.000000
   27       -4.595791   1.000000
   28       -4.592467   1.000000
   29       -4.507684   1.000000
   30       -4.451706   1.000000
   31       -4.311311   1.000000
   32       -4.223341   1.000000
   33       -4.178216   1.000000
   34       -4.064482   1.000000
   35       -4.052084   1.000000
   36       -3.911652   1.000000
   37       -3.875767   1.000000
   38       -3.837699   1.000000
   39       -3.829729   1.000000
   40       -3.802183   1.000000
   41       -3.638553   1.000000
   42       -3.597679   1.000000
   43       -3.397782   1.000000
   44       -3.375902   1.000000
   45       -3.352693   1.000000
   46       -3.255160   1.000000
   47       -2.998294   1.000000
   48       -2.981206   1.000000
   49       -2.813715   1.000000
   50       -2.775880   1.000000
   51       -2.621688   1.000000
   52       -2.319764   1.000000
   53       -2.219060   1.000000
   54       -2.204279   1.000000
   55       -2.073250   1.000000
   56       -2.049282   1.000000
   57       -1.758148   1.000000
   58       -1.686985   1.000000
   59       -1.578406   1.000000
   60       -1.529001   1.000000
   61       -1.467095   1.000000
   62       -1.416848   1.000001
   63       -1.393247   1.000003
   64       -1.300932   1.000060
   65       -1.129072   1.003710
   66       -0.997145   1.024976
   67       -0.971626   1.030580
   68       -0.941528   1.035012
   69       -0.875633   1.019289
   70       -0.804494   0.917971
   71       -0.752452   0.766814
   72       -0.698838   0.556717
   73       -0.644889   0.332420
   74       -0.631695   0.281585
   75       -0.576037   0.105280
   76       -0.568195   0.086354
   77       -0.527147   0.012221
   78       -0.405205  -0.031736
   79       -0.399927  -0.030730
   80       -0.362240  -0.022336
   81       -0.321670  -0.013725
   82       -0.153597  -0.000553
   83       -0.078183  -0.000076
   84        0.018446  -0.000004
   85        0.081088  -0.000000
   86        0.140391  -0.000000
   87        0.383321  -0.000000
   88        0.559720  -0.000000
   89        1.288613  -0.000000
   90        1.470025  -0.000000
   91        1.714120  -0.000000
   92        1.723481  -0.000000
   93        1.744105  -0.000000
   94        1.911745  -0.000000
   95        2.479957  -0.000000
   96        2.681201  -0.000000
 
 -0.6250000E-01  0.1040834E-16  0.0000000E+00  0.1041667E-01
    1      -10.042909   1.000000
    2       -8.818174   1.000000
    3       -7.750125   1.000000
    4       -7.607199   1.000000
    5       -7.320466   1.000000
    6       -7.301377   1.000000
    7       -7.279625   1.000000
    8       -7.153426   1.000000
    9       -7.135502   1.000000
   10       -7.128773   1.000000
   11       -6.765533   1.000000
   12       -6.684289   1.000000
   13       -6.675291   1.000000
   14       -6.645381   1.000000
   15       -6.632314   1.000000
   16       -6.482051   1.000000
   17       -6.451483   1.000000
   18       -6.411302   1.000000
   19       -6.392814   1.000000
   20       -5.928132   1.000000
   21       -5.679812   1.000000
   22       -5.669095   1.000000
   23       -5.421969   1.000000
   24       -4.823544   1.000000
   25       -4.812455   1.000000
   26       -4.687774   1.000000
   27       -4.598935   1.000000
   28       -4.590654   1.000000
   29       -4.507049   1.000000
   30       -4.451970   1.000000
   31       -4.311268   1.000000
   32       -4.223709   1.000000
   33       -4.177984   1.000000
   34       -4.066318   1.000000
   35       -4.050237   1.000000
   36       -3.909437   1.000000
   37       -3.878483   1.000000
   38       -3.837942   1.000000
   39       -3.825286   1.000000
   40       -3.806069   1.000000
   41       -3.643525   1.000000
   42       -3.591431   1.000000
   43       -3.395919   1.000000
   44       -3.379711   1.000000
   45       -3.350042   1.000000
   46       -3.254538   1.000000
   47       -3.019271   1.000000
   48       -2.969702   1.000000
   49       -2.829324   1.000000
   50       -2.735800   1.000000
   51       -2.637806   1.000000
   52       -2.321927   1.000000
   53       -2.220700   1.000000
   54       -2.207638   1.000000
   55       -2.063224   1.000000
   56       -2.054762   1.000000
   57       -1.742424   1.000000
   58       -1.680903   1.000000
   59       -1.598675   1.000000
   60       -1.553615   1.000000
   61       -1.465725   1.000000
   62       -1.408683   1.000002
   63       -1.396999   1.000003
   64       -1.266501   1.000157
   65       -1.117202   1.004626
   66       -1.000846   1.024120
   67       -0.983640   1.028042
   68       -0.949745   1.034192
   69       -0.905494   1.032657
   70       -0.786317   0.872603
   71       -0.698040   0.553366
   72       -0.694599   0.538877
   73       -0.668972   0.430742
   74       -0.646850   0.340191
   75       -0.582201   0.121242
   76       -0.563780   0.076382
   77       -0.539973   0.031009
   78       -0.405396  -0.031771
   79       -0.397989  -0.030342
   80       -0.368137  -0.023699
   81       -0.295962  -0.009446
   82       -0.174339  -0.000901
   83       -0.068290  -0.000057
   84       -0.028981  -0.000018
   85        0.079836  -0.000000
   86        0.170014  -0.000000
   87        0.460796  -0.000000
   88        0.486620  -0.000000
   89        1.286981  -0.000000
   90        1.469106  -0.000000
   91        1.705809  -0.000000
   92        1.743736  -0.000000
   93        1.774170  -0.000000
   94        1.875306  -0.000000
   95        2.490038  -0.000000
   96        2.678326  -0.000000
 
  0.1875000E+00  0.6250000E-01  0.0000000E+00  0.2083333E-01
    1       -9.839322   1.000000
    2       -8.618715   1.000000
    3       -7.545113   1.000000
    4       -7.413776   1.000000
    5       -7.299481   1.000000
    6       -7.222462   1.000000
    7       -7.105984   1.000000
    8       -7.071271   1.000000
    9       -7.022039   1.000000
   10       -6.954612   1.000000
   11       -6.678756   1.000000
   12       -6.597961   1.000000
   13       -6.569715   1.000000
   14       -6.559124   1.000000
   15       -6.509528   1.000000
   16       -6.367099   1.000000
   17       -6.327703   1.000000
   18       -6.262720   1.000000
   19       -6.219550   1.000000
   20       -5.880160   1.000000
   21       -5.615605   1.000000
   22       -5.605895   1.000000
   23       -5.377994   1.000000
   24       -4.852803   1.000000
   25       -4.805862   1.000000
   26       -4.731591   1.000000
   27       -4.589864   1.000000
   28       -4.510578   1.000000
   29       -4.507840   1.000000
   30       -4.432454   1.000000
   31       -4.389400   1.000000
   32       -4.335993   1.000000
   33       -4.073655   1.000000
   34       -4.028572   1.000000
   35       -3.993785   1.000000
   36       -3.971641   1.000000
   37       -3.885401   1.000000
   38       -3.846250   1.000000
   39       -3.782259   1.000000
   40       -3.757174   1.000000
   41       -3.734170   1.000000
   42       -3.578734   1.000000
   43       -3.546700   1.000000
   44       -3.492672   1.000000
   45       -3.439082   1.000000
   46       -3.417403   1.000000
   47       -3.226151   1.000000
   48       -3.122602   1.000000
   49       -2.877696   1.000000
   50       -2.809250   1.000000
   51       -2.636443   1.000000
   52       -2.594194   1.000000
   53       -2.357486   1.000000
   54       -2.313348   1.000000
   55       -2.178711   1.000000
   56       -2.093413   1.000000
   57       -1.946321   1.000000
   58       -1.829377   1.000000
   59       -1.794106   1.000000
   60       -1.741713   1.000000
   61       -1.715001   1.000000
   62       -1.649859   1.000000
   63       -1.589998   1.000000
   64       -1.512094   1.000000
   65       -1.465696   1.000000
   66       -1.362710   1.000009
   67       -1.312361   1.000043
   68       -1.155140   1.002216
   69       -1.054227   1.012793
   70       -1.023580   1.018946
   71       -0.935460   1.035361
   72       -0.926285   1.035392
   73       -0.863424   1.009648
   74       -0.829957   0.967576
   75       -0.808529   0.926911
   76       -0.751529   0.763578
   77       -0.696415   0.546529
   78       -0.671791   0.442562
   79       -0.633432   0.288120
   80       -0.535562   0.024117
   81       -0.436502  -0.035399
   82       -0.414694  -0.033326
   83       -0.345359  -0.018538
   84       -0.304387  -0.010732
   85       -0.094055  -0.000119
   86        0.282272  -0.000000
   87        0.356709  -0.000000
   88        0.584852  -0.000000
   89        0.917322  -0.000000
   90        1.111461  -0.000000
   91        1.374083  -0.000000
   92        1.641924  -0.000000
   93        2.240993  -0.000000
   94        2.554488  -0.000000
   95        2.774345  -0.000000
   96        3.137179  -0.000000
 
  0.1250000E+00  0.1875000E+00  0.0000000E+00  0.2083333E-01
    1       -9.839381   1.000000
    2       -8.618782   1.000000
    3       -7.545635   1.000000
    4       -7.414332   1.000000
    5       -7.300513   1.000000
    6       -7.220213   1.000000
    7       -7.107042   1.000000
    8       -7.072005   1.000000
    9       -7.021660   1.000000
   10       -6.954454   1.000000
   11       -6.679400   1.000000
   12       -6.598541   1.000000
   13       -6.567507   1.000000
   14       -6.561753   1.000000
   15       -6.508624   1.000000
   16       -6.362319   1.000000
   17       -6.326928   1.000000
   18       -6.265605   1.000000
   19       -6.222885   1.000000
   20       -5.879240   1.000000
   21       -5.624572   1.000000
   22       -5.598268   1.000000
   23       -5.375322   1.000000
   24       -4.867322   1.000000
   25       -4.794594   1.000000
   26       -4.731645   1.000000
   27       -4.582760   1.000000
   28       -4.520478   1.000000
   29       -4.496499   1.000000
   30       -4.428562   1.000000
   31       -4.400952   1.000000
   32       -4.332360   1.000000
   33       -4.069904   1.000000
   34       -4.029898   1.000000
   35       -3.998475   1.000000
   36       -3.967615   1.000000
   37       -3.895369   1.000000
   38       -3.848269   1.000000
   39       -3.771902   1.000000
   40       -3.747408   1.000000
   41       -3.734494   1.000000
   42       -3.594446   1.000000
   43       -3.533085   1.000000
   44       -3.505311   1.000000
   45       -3.453089   1.000000
   46       -3.399788   1.000000
   47       -3.192623   1.000000
   48       -3.133983   1.000000
   49       -2.899640   1.000000
   50       -2.831102   1.000000
   51       -2.619478   1.000000
   52       -2.576186   1.000000
   53       -2.347968   1.000000
   54       -2.303590   1.000000
   55       -2.226122   1.000000
   56       -2.064573   1.000000
   57       -1.975937   1.000000
   58       -1.840007   1.000000
   59       -1.765387   1.000000
   60       -1.730671   1.000000
   61       -1.720085   1.000000
   62       -1.620663   1.000000
   63       -1.601792   1.000000
   64       -1.539654   1.000000
   65       -1.440701   1.000001
   66       -1.413677   1.000002
   67       -1.292179   1.000077
   68       -1.172377   1.001541
   69       -1.098634   1.006418
   70       -1.043261   1.014846
   71       -0.928850   1.035449
   72       -0.888978   1.026885
   73       -0.873989   1.018148
   74       -0.850272   0.996019
   75       -0.761835   0.798725
   76       -0.720363   0.645460
   77       -0.702201   0.570812
   78       -0.666098   0.418745
   79       -0.590413   0.143976
   80       -0.563444   0.075643
   81       -0.511922  -0.005337
   82       -0.425858  -0.034716
   83       -0.314640  -0.012450
   84       -0.235537  -0.003295
   85       -0.100758  -0.000143
   86        0.285085  -0.000000
   87        0.356820  -0.000000
   88        0.588052  -0.000000
   89        0.919733  -0.000000
   90        1.090502  -0.000000
   91        1.387773  -0.000000
   92        1.618949  -0.000000
   93        2.238274  -0.000000
   94        2.551277  -0.000000
   95        2.767383  -0.000000
   96        3.137078  -0.000000
 
 -0.6250000E-01  0.1250000E+00  0.0000000E+00  0.2083333E-01
    1       -9.839346   1.000000
    2       -8.618743   1.000000
    3       -7.545363   1.000000
    4       -7.414037   1.000000
    5       -7.299936   1.000000
    6       -7.221167   1.000000
    7       -7.106969   1.000000
    8       -7.071509   1.000000
    9       -7.021606   1.000000
   10       -6.954667   1.000000
   11       -6.678666   1.000000
   12       -6.598191   1.000000
   13       -6.569311   1.000000
   14       -6.558757   1.000000
   15       -6.511223   1.000000
   16       -6.366134   1.000000
   17       -6.322203   1.000000
   18       -6.269313   1.000000
   19       -6.218805   1.000000
   20       -5.879766   1.000000
   21       -5.621903   1.000000
   22       -5.600107   1.000000
   23       -5.376937   1.000000
   24       -4.862082   1.000000
   25       -4.797789   1.000000
   26       -4.731627   1.000000
   27       -4.583524   1.000000
   28       -4.513772   1.000000
   29       -4.508317   1.000000
   30       -4.431122   1.000000
   31       -4.393708   1.000000
   32       -4.334142   1.000000
   33       -4.072147   1.000000
   34       -4.028993   1.000000
   35       -3.993829   1.000000
   36       -3.972953   1.000000
   37       -3.886137   1.000000
   38       -3.849019   1.000000
   39       -3.778954   1.000000
   40       -3.757289   1.000000
   41       -3.731347   1.000000
   42       -3.586574   1.000000
   43       -3.535801   1.000000
   44       -3.497617   1.000000
   45       -3.450042   1.000000
   46       -3.407058   1.000000
   47       -3.212785   1.000000
   48       -3.127467   1.000000
   49       -2.881017   1.000000
   50       -2.826654   1.000000
   51       -2.632631   1.000000
   52       -2.580473   1.000000
   53       -2.349414   1.000000
   54       -2.319627   1.000000
   55       -2.195463   1.000000
   56       -2.081939   1.000000
   57       -1.959107   1.000000
   58       -1.802471   1.000000
   59       -1.781962   1.000000
   60       -1.762840   1.000000
   61       -1.711249   1.000000
   62       -1.658139   1.000000
   63       -1.585760   1.000000
   64       -1.516309   1.000000
   65       -1.462250   1.000000
   66       -1.359767   1.000010
   67       -1.329416   1.000026
   68       -1.152104   1.002358
   69       -1.088167   1.007643
   70       -1.013013   1.021316
   71       -0.939974   1.035124
   72       -0.910912   1.033803
   73       -0.885487   1.025172
   74       -0.846309   0.991201
   75       -0.785881   0.871415
   76       -0.724570   0.662269
   77       -0.705236   0.583477
   78       -0.663093   0.406257
   79       -0.624091   0.253599
   80       -0.527148   0.012221
   81       -0.490833  -0.022074
   82       -0.393474  -0.029408
   83       -0.351391  -0.019870
   84       -0.247522  -0.004136
   85       -0.104363  -0.000157
   86        0.273099  -0.000000
   87        0.349911  -0.000000
   88        0.595474  -0.000000
   89        0.918158  -0.000000
   90        1.096520  -0.000000
   91        1.390145  -0.000000
   92        1.625623  -0.000000
   93        2.241125  -0.000000
   94        2.545922  -0.000000
   95        2.774116  -0.000000
   96        3.142944  -0.000000
 
  0.3125000E+00  0.6250000E-01  0.0000000E+00  0.2083333E-01
    1       -9.386600   1.000000
    2       -8.188336   1.000000
    3       -7.396662   1.000000
    4       -7.114001   1.000000
    5       -7.004051   1.000000
    6       -6.993669   1.000000
    7       -6.948879   1.000000
    8       -6.775557   1.000000
    9       -6.724938   1.000000
   10       -6.649608   1.000000
   11       -6.560309   1.000000
   12       -6.448217   1.000000
   13       -6.342977   1.000000
   14       -6.309171   1.000000
   15       -6.215384   1.000000
   16       -6.163333   1.000000
   17       -6.035153   1.000000
   18       -5.935354   1.000000
   19       -5.870257   1.000000
   20       -5.703793   1.000000
   21       -5.479148   1.000000
   22       -5.461568   1.000000
   23       -5.291626   1.000000
   24       -4.966063   1.000000
   25       -4.901905   1.000000
   26       -4.793706   1.000000
   27       -4.734437   1.000000
   28       -4.635301   1.000000
   29       -4.580176   1.000000
   30       -4.379293   1.000000
   31       -4.368302   1.000000
   32       -4.270970   1.000000
   33       -4.178445   1.000000
   34       -4.150730   1.000000
   35       -4.128035   1.000000
   36       -3.971473   1.000000
   37       -3.910658   1.000000
   38       -3.873935   1.000000
   39       -3.799284   1.000000
   40       -3.764857   1.000000
   41       -3.730878   1.000000
   42       -3.699082   1.000000
   43       -3.664282   1.000000
   44       -3.638233   1.000000
   45       -3.553957   1.000000
   46       -3.489567   1.000000
   47       -3.399364   1.000000
   48       -3.161555   1.000000
   49       -3.142041   1.000000
   50       -2.968719   1.000000
   51       -2.907472   1.000000
   52       -2.766677   1.000000
   53       -2.694049   1.000000
   54       -2.638314   1.000000
   55       -2.569610   1.000000
   56       -2.509203   1.000000
   57       -2.486581   1.000000
   58       -2.427231   1.000000
   59       -2.351897   1.000000
   60       -2.298050   1.000000
   61       -2.200533   1.000000
   62       -2.087094   1.000000
   63       -2.005668   1.000000
   64       -1.856592   1.000000
   65       -1.832020   1.000000
   66       -1.750357   1.000000
   67       -1.672085   1.000000
   68       -1.563403   1.000000
   69       -1.514625   1.000000
   70       -1.431101   1.000001
   71       -1.352875   1.000013
   72       -1.281618   1.000104
   73       -1.218755   1.000532
   74       -1.148062   1.002559
   75       -1.105273   1.005724
   76       -1.048458   1.013851
   77       -0.970507   1.030802
   78       -0.859124   1.005579
   79       -0.808116   0.926014
   80       -0.780235   0.855584
   81       -0.701077   0.566108
   82       -0.640762   0.316234
   83       -0.543026   0.036050
   84       -0.464704  -0.032801
   85       -0.380195  -0.026477
   86        0.007989  -0.000005
   87        0.407887  -0.000000
   88        0.669503  -0.000000
   89        1.026717  -0.000000
   90        1.444944  -0.000000
   91        1.828735  -0.000000
   92        1.972161  -0.000000
   93        2.380925  -0.000000
   94        2.517774  -0.000000
   95        3.235828  -0.000000
   96        3.592910  -0.000000
 
  0.2500000E+00  0.3125000E+00  0.0000000E+00  0.2083333E-01
    1       -9.386795   1.000000
    2       -8.188594   1.000000
    3       -7.397756   1.000000
    4       -7.114361   1.000000
    5       -7.009038   1.000000
    6       -6.990099   1.000000
    7       -6.948887   1.000000
    8       -6.776023   1.000000
    9       -6.724998   1.000000
   10       -6.649835   1.000000
   11       -6.560169   1.000000
   12       -6.449572   1.000000
   13       -6.342068   1.000000
   14       -6.309266   1.000000
   15       -6.210061   1.000000
   16       -6.169097   1.000000
   17       -6.028668   1.000000
   18       -5.938283   1.000000
   19       -5.883510   1.000000
   20       -5.692217   1.000000
   21       -5.496347   1.000000
   22       -5.449392   1.000000
   23       -5.284246   1.000000
   24       -4.976549   1.000000
   25       -4.904220   1.000000
   26       -4.787058   1.000000
   27       -4.721710   1.000000
   28       -4.644471   1.000000
   29       -4.575914   1.000000
   30       -4.373633   1.000000
   31       -4.370936   1.000000
   32       -4.279548   1.000000
   33       -4.190481   1.000000
   34       -4.154186   1.000000
   35       -4.110791   1.000000
   36       -3.955331   1.000000
   37       -3.926219   1.000000
   38       -3.864035   1.000000
   39       -3.799872   1.000000
   40       -3.778373   1.000000
   41       -3.728207   1.000000
   42       -3.699442   1.000000
   43       -3.658524   1.000000
   44       -3.630529   1.000000
   45       -3.531953   1.000000
   46       -3.488963   1.000000
   47       -3.391077   1.000000
   48       -3.183966   1.000000
   49       -3.150650   1.000000
   50       -2.988423   1.000000
   51       -2.886524   1.000000
   52       -2.774556   1.000000
   53       -2.669054   1.000000
   54       -2.632592   1.000000
   55       -2.562740   1.000000
   56       -2.523447   1.000000
   57       -2.480804   1.000000
   58       -2.453162   1.000000
   59       -2.362849   1.000000
   60       -2.285810   1.000000
   61       -2.206771   1.000000
   62       -2.061363   1.000000
   63       -1.982356   1.000000
   64       -1.936617   1.000000
   65       -1.788216   1.000000
   66       -1.761374   1.000000
   67       -1.719633   1.000000
   68       -1.590380   1.000000
   69       -1.473599   1.000000
   70       -1.419237   1.000001
   71       -1.380115   1.000005
   72       -1.297299   1.000067
   73       -1.235045   1.000356
   74       -1.165207   1.001796
   75       -1.140306   1.002986
   76       -1.033237   1.016874
   77       -0.916880   1.034693
   78       -0.875656   1.019304
   79       -0.835870   0.976832
   80       -0.724278   0.661106
   81       -0.652683   0.363592
   82       -0.618774   0.234675
   83       -0.569550   0.089513
   84       -0.453086  -0.034789
   85       -0.339416  -0.017263
   86        0.018253  -0.000004
   87        0.383805  -0.000000
   88        0.666470  -0.000000
   89        1.022636  -0.000000
   90        1.432325  -0.000000
   91        1.814917  -0.000000
   92        1.996771  -0.000000
   93        2.376069  -0.000000
   94        2.479419  -0.000000
   95        3.236403  -0.000000
   96        3.604328  -0.000000
 
 -0.6250000E-01  0.2500000E+00  0.0000000E+00  0.2083333E-01
    1       -9.386736   1.000000
    2       -8.188529   1.000000
    3       -7.397757   1.000000
    4       -7.113694   1.000000
    5       -7.008436   1.000000
    6       -6.989099   1.000000
    7       -6.950063   1.000000
    8       -6.777265   1.000000
    9       -6.724899   1.000000
   10       -6.650074   1.000000
   11       -6.557563   1.000000
   12       -6.449282   1.000000
   13       -6.342949   1.000000
   14       -6.309260   1.000000
   15       -6.217606   1.000000
   16       -6.161796   1.000000
   17       -6.031069   1.000000
   18       -5.937210   1.000000
   19       -5.879768   1.000000
   20       -5.694103   1.000000
   21       -5.498841   1.000000
   22       -5.445923   1.000000
   23       -5.286072   1.000000
   24       -4.977716   1.000000
   25       -4.903749   1.000000
   26       -4.785462   1.000000
   27       -4.718674   1.000000
   28       -4.645329   1.000000
   29       -4.578074   1.000000
   30       -4.380587   1.000000
   31       -4.369863   1.000000
   32       -4.274255   1.000000
   33       -4.178882   1.000000
   34       -4.165370   1.000000
   35       -4.110217   1.000000
   36       -3.956673   1.000000
   37       -3.927871   1.000000
   38       -3.869319   1.000000
   39       -3.797632   1.000000
   40       -3.771461   1.000000
   41       -3.738722   1.000000
   42       -3.693154   1.000000
   43       -3.662633   1.000000
   44       -3.631549   1.000000
   45       -3.534564   1.000000
   46       -3.489402   1.000000
   47       -3.396458   1.000000
   48       -3.183343   1.000000
   49       -3.142705   1.000000
   50       -2.974493   1.000000
   51       -2.896844   1.000000
   52       -2.775791   1.000000
   53       -2.690604   1.000000
   54       -2.628373   1.000000
   55       -2.580958   1.000000
   56       -2.506089   1.000000
   57       -2.484645   1.000000
   58       -2.434364   1.000000
   59       -2.363820   1.000000
   60       -2.272507   1.000000
   61       -2.197213   1.000000
   62       -2.060901   1.000000
   63       -2.016577   1.000000
   64       -1.905751   1.000000
   65       -1.807001   1.000000
   66       -1.752906   1.000000
   67       -1.718526   1.000000
   68       -1.552194   1.000000
   69       -1.480072   1.000000
   70       -1.433872   1.000001
   71       -1.382959   1.000005
   72       -1.276028   1.000121
   73       -1.215679   1.000573
   74       -1.178404   1.001352
   75       -1.133597   1.003403
   76       -1.083130   1.008292
   77       -0.919617   1.034981
   78       -0.867050   1.012799
   79       -0.847546   0.992741
   80       -0.716700   0.630659
   81       -0.672215   0.444342
   82       -0.606371   0.192785
   83       -0.565364   0.079904
   84       -0.463944  -0.032977
   85       -0.338896  -0.017153
   86        0.024970  -0.000003
   87        0.380586  -0.000000
   88        0.666353  -0.000000
   89        1.022580  -0.000000
   90        1.427698  -0.000000
   91        1.816084  -0.000000
   92        2.002413  -0.000000
   93        2.371032  -0.000000
   94        2.483613  -0.000000
   95        3.243152  -0.000000
   96        3.609803  -0.000000
 
  0.4375000E+00  0.6250000E-01  0.0000000E+00  0.2083333E-01
    1       -8.748930   1.000000
    2       -7.763404   1.000000
    3       -7.636267   1.000000
    4       -7.040311   1.000000
    5       -6.678900   1.000000
    6       -6.617641   1.000000
    7       -6.534766   1.000000
    8       -6.451485   1.000000
    9       -6.412937   1.000000
   10       -6.391296   1.000000
   11       -6.337648   1.000000
   12       -6.184628   1.000000
   13       -6.052681   1.000000
   14       -5.991380   1.000000
   15       -5.928122   1.000000
   16       -5.872267   1.000000
   17       -5.766280   1.000000
   18       -5.589997   1.000000
   19       -5.540240   1.000000
   20       -5.401446   1.000000
   21       -5.284815   1.000000
   22       -5.231108   1.000000
   23       -5.195292   1.000000
   24       -5.105641   1.000000
   25       -5.030175   1.000000
   26       -4.926717   1.000000
   27       -4.875500   1.000000
   28       -4.826393   1.000000
   29       -4.617353   1.000000
   30       -4.601851   1.000000
   31       -4.510894   1.000000
   32       -4.475456   1.000000
   33       -4.371162   1.000000
   34       -4.317945   1.000000
   35       -4.282260   1.000000
   36       -4.171777   1.000000
   37       -4.082453   1.000000
   38       -4.001629   1.000000
   39       -3.955763   1.000000
   40       -3.865981   1.000000
   41       -3.800549   1.000000
   42       -3.709162   1.000000
   43       -3.679586   1.000000
   44       -3.620809   1.000000
   45       -3.554869   1.000000
   46       -3.494927   1.000000
   47       -3.463877   1.000000
   48       -3.436142   1.000000
   49       -3.364091   1.000000
   50       -3.282196   1.000000
   51       -3.241717   1.000000
   52       -3.172468   1.000000
   53       -3.106467   1.000000
   54       -3.045558   1.000000
   55       -2.906151   1.000000
   56       -2.859388   1.000000
   57       -2.809920   1.000000
   58       -2.737649   1.000000
   59       -2.662874   1.000000
   60       -2.643166   1.000000
   61       -2.389549   1.000000
   62       -2.347166   1.000000
   63       -2.263650   1.000000
   64       -2.234403   1.000000
   65       -2.184919   1.000000
   66       -2.081357   1.000000
   67       -2.018232   1.000000
   68       -1.932903   1.000000
   69       -1.879196   1.000000
   70       -1.814571   1.000000
   71       -1.730686   1.000000
   72       -1.706748   1.000000
   73       -1.538049   1.000000
   74       -1.407137   1.000002
   75       -1.296319   1.000069
   76       -1.236986   1.000339
   77       -1.153902   1.002273
   78       -1.038960   1.015700
   79       -1.009956   1.022016
   80       -0.770632   0.826891
   81       -0.715780   0.626917
   82       -0.688773   0.514267
   83       -0.596817   0.162845
   84       -0.442784  -0.035437
   85       -0.397395  -0.030222
   86       -0.211112  -0.002017
   87        0.683264  -0.000000
   88        0.823647  -0.000000
   89        1.151358  -0.000000
   90        1.623741  -0.000000
   91        1.927937  -0.000000
   92        2.110586  -0.000000
   93        2.495861  -0.000000
   94        2.723226  -0.000000
   95        3.522980  -0.000000
   96        3.780748  -0.000000
 
  0.3750000E+00  0.4375000E+00  0.0000000E+00  0.2083333E-01
    1       -8.749442   1.000000
    2       -7.763681   1.000000
    3       -7.637302   1.000000
    4       -7.039596   1.000000
    5       -6.677827   1.000000
    6       -6.621940   1.000000
    7       -6.538502   1.000000
    8       -6.454506   1.000000
    9       -6.406863   1.000000
   10       -6.396002   1.000000
   11       -6.335137   1.000000
   12       -6.186526   1.000000
   13       -6.052852   1.000000
   14       -5.994751   1.000000
   15       -5.926113   1.000000
   16       -5.875022   1.000000
   17       -5.770948   1.000000
   18       -5.584114   1.000000
   19       -5.547149   1.000000
   20       -5.389988   1.000000