<?xml version="1.0" encoding="ISO-8859-1"?>
<modeling>
 <generator>
  <i name="program" type="string">vasp </i>
  <i name="version" type="string">5.4.4.18Apr17-6-g9f103f2a35  </i>
  <i name="subversion" type="string">(build Apr 28 2017 10:53:45) complex            parallel </i>
  <i name="platform" type="string">LinuxIFC </i>
  <i name="date" type="string">2020 02 16 </i>
  <i name="time" type="string">21:33:40 </i>
 </generator>
 <incar>
  <i type="string" name="PREC">normal</i>
  <i type="int" name="ISPIN">     1</i>
  <i type="int" name="IBRION">     2</i>
  <i name="EDIFF">      0.00001000</i>
  <i name="EDIFFG">     -0.05000000</i>
  <i type="int" name="NSW">     0</i>
  <i name="ENCUT">    350.00000000</i>
  <i type="logical" name="LWAVE"> F  </i>
  <i type="logical" name="LCHARG"> F  </i>
  <v type="int" name="KPOINT_BSE">    -1     0     0     0</v>
  <i type="string" name="GGA"> PE</i>
  <i type="int" name="IDIPOL">     3</i>
 </incar>
 <structure name="primitive_cell" >
  <crystal>
   <varray name="basis" >
    <v>       5.55785930       0.00000000       0.00000000 </v>
    <v>       2.77892965       4.81324734       0.00000000 </v>
    <v>       0.00000000       0.00000000      30.80695967 </v>
   </varray>
   <i name="volume">    824.12780743 </i>
   <varray name="rec_basis" >
    <v>       0.17992539      -0.10387997       0.00000000 </v>
    <v>       0.00000000       0.20775994       0.00000000 </v>
    <v>       0.00000000       0.00000000       0.03246020 </v>
   </varray>
  </crystal>
  <varray name="positions" >
   <v>       0.00000000       0.00000000       0.38952237 </v>
   <v>       0.00000000      -0.50000000       0.38952237 </v>
   <v>      -0.50000000      -0.50000000       0.38952237 </v>
   <v>      -0.50000000       0.00000000       0.38952237 </v>
   <v>       0.16652883       0.16652883       0.46542487 </v>
   <v>       0.16652883      -0.33305766       0.46542487 </v>
   <v>      -0.33305766       0.16652883       0.46542487 </v>
   <v>      -0.33333333      -0.33333333       0.46426737 </v>
   <v>      -0.16603131      -0.16603131      -0.45994801 </v>
   <v>      -0.16603131       0.33206261      -0.45994801 </v>
   <v>       0.33206261      -0.16603131      -0.45994801 </v>
   <v>       0.33333333       0.33333333      -0.46005508 </v>
   <v>       0.00000000       0.00000000      -0.38095648 </v>
   <v>      -0.49951272      -0.00097456      -0.38501086 </v>
   <v>      -0.00097456      -0.49951272      -0.38501086 </v>
   <v>      -0.49951272      -0.49951272      -0.38501086 </v>
   <v>       0.00000000       0.00000000      -0.33046564 </v>
  </varray>
 </structure>
 <varray name="primitive_index" >
  <v type="int" >        1 </v>
  <v type="int" >        3 </v>
  <v type="int" >        4 </v>
  <v type="int" >        2 </v>
  <v type="int" >        5 </v>
  <v type="int" >        7 </v>
  <v type="int" >        6 </v>
  <v type="int" >        8 </v>
  <v type="int" >       11 </v>
  <v type="int" >        9 </v>
  <v type="int" >       16 </v>
  <v type="int" >       10 </v>
  <v type="int" >       12 </v>
  <v type="int" >       13 </v>
  <v type="int" >       14 </v>
  <v type="int" >       15 </v>
  <v type="int" >       17 </v>
 </varray>
 <kpoints>
  <generation param="Monkhorst-Pack">
   <v type="int" name="divisions">       8        8        1 </v>
   <v name="usershift">      0.00000000       0.00000000       0.00000000 </v>
   <v name="genvec1">      0.12500000       0.00000000       0.00000000 </v>
   <v name="genvec2">      0.00000000       0.12500000       0.00000000 </v>
   <v name="genvec3">      0.00000000       0.00000000       1.00000000 </v>
   <v name="shift">      0.50000000       0.50000000       0.00000000 </v>
  </generation>
  <varray name="kpointlist" >
   <v>       0.06250000       0.06250000       0.00000000 </v>
   <v>      -0.06250000       0.00000000       0.00000000 </v>
   <v>       0.18750000       0.06250000       0.00000000 </v>
   <v>       0.12500000       0.18750000       0.00000000 </v>
   <v>      -0.06250000       0.12500000       0.00000000 </v>
   <v>       0.31250000       0.06250000       0.00000000 </v>
   <v>       0.25000000       0.31250000       0.00000000 </v>
   <v>      -0.06250000       0.25000000       0.00000000 </v>
   <v>       0.43750000       0.06250000       0.00000000 </v>
   <v>       0.37500000       0.43750000       0.00000000 </v>
   <v>      -0.06250000       0.37500000       0.00000000 </v>
   <v>      -0.43750000       0.06250000       0.00000000 </v>
   <v>       0.50000000      -0.43750000       0.00000000 </v>
   <v>      -0.06250000       0.50000000       0.00000000 </v>
   <v>      -0.31250000       0.06250000       0.00000000 </v>
   <v>      -0.37500000      -0.31250000       0.00000000 </v>
   <v>      -0.06250000      -0.37500000       0.00000000 </v>
   <v>      -0.18750000       0.06250000       0.00000000 </v>
   <v>      -0.25000000      -0.18750000       0.00000000 </v>
   <v>      -0.06250000      -0.25000000       0.00000000 </v>
   <v>      -0.06250000       0.06250000       0.00000000 </v>
   <v>      -0.06250000      -0.12500000       0.00000000 </v>
   <v>       0.18750000       0.18750000       0.00000000 </v>
   <v>      -0.18750000       0.00000000       0.00000000 </v>
   <v>       0.31250000       0.18750000       0.00000000 </v>
   <v>       0.12500000       0.31250000       0.00000000 </v>
   <v>      -0.18750000       0.12500000       0.00000000 </v>
   <v>       0.43750000       0.18750000       0.00000000 </v>
   <v>       0.25000000       0.43750000       0.00000000 </v>
   <v>      -0.18750000       0.25000000       0.00000000 </v>
   <v>      -0.43750000       0.18750000       0.00000000 </v>
   <v>       0.37500000      -0.43750000       0.00000000 </v>
   <v>      -0.18750000       0.37500000       0.00000000 </v>
   <v>      -0.31250000       0.18750000       0.00000000 </v>
   <v>       0.50000000      -0.31250000       0.00000000 </v>
   <v>      -0.18750000       0.50000000       0.00000000 </v>
   <v>      -0.18750000       0.18750000       0.00000000 </v>
   <v>      -0.18750000      -0.37500000       0.00000000 </v>
   <v>       0.31250000       0.31250000       0.00000000 </v>
   <v>      -0.31250000       0.00000000       0.00000000 </v>
   <v>       0.43750000       0.31250000       0.00000000 </v>
   <v>       0.12500000       0.43750000       0.00000000 </v>
   <v>      -0.31250000       0.12500000       0.00000000 </v>
   <v>      -0.43750000       0.31250000       0.00000000 </v>
   <v>       0.25000000      -0.43750000       0.00000000 </v>
   <v>      -0.31250000       0.25000000       0.00000000 </v>
   <v>      -0.31250000       0.31250000       0.00000000 </v>
   <v>      -0.31250000       0.37500000       0.00000000 </v>
   <v>       0.43750000       0.43750000       0.00000000 </v>
   <v>      -0.43750000       0.00000000       0.00000000 </v>
   <v>      -0.43750000       0.43750000       0.00000000 </v>
   <v>      -0.43750000       0.12500000       0.00000000 </v>
  </varray>
  <varray name="weights" >
   <v>       0.02083333 </v>
   <v>       0.01041667 </v>
   <v>       0.02083333 </v>
   <v>       0.02083333 </v>
   <v>       0.02083333 </v>
   <v>       0.02083333 </v>
   <v>       0.02083333 </v>
   <v>       0.02083333 </v>
   <v>       0.02083333 </v>
   <v>       0.02083333 </v>
   <v>       0.02083333 </v>
   <v>       0.02083333 </v>
   <v>       0.02083333 </v>
   <v>       0.02083333 </v>
   <v>       0.02083333 </v>
   <v>       0.02083333 </v>
   <v>       0.02083333 </v>
   <v>       0.02083333 </v>
   <v>       0.02083333 </v>
   <v>       0.02083333 </v>
   <v>       0.02083333 </v>
   <v>       0.01041667 </v>
   <v>       0.02083333 </v>
   <v>       0.01041667 </v>
   <v>       0.02083333 </v>
   <v>       0.02083333 </v>
   <v>       0.02083333 </v>
   <v>       0.02083333 </v>
   <v>       0.02083333 </v>
   <v>       0.02083333 </v>
   <v>       0.02083333 </v>
   <v>       0.02083333 </v>
   <v>       0.02083333 </v>
   <v>       0.02083333 </v>
   <v>       0.02083333 </v>
   <v>       0.02083333 </v>
   <v>       0.02083333 </v>
   <v>       0.01041667 </v>
   <v>       0.02083333 </v>
   <v>       0.01041667 </v>
   <v>       0.02083333 </v>
   <v>       0.02083333 </v>
   <v>       0.02083333 </v>
   <v>       0.02083333 </v>
   <v>       0.02083333 </v>
   <v>       0.02083333 </v>
   <v>       0.02083333 </v>
   <v>       0.01041667 </v>
   <v>       0.02083333 </v>
   <v>       0.01041667 </v>
   <v>       0.02083333 </v>
   <v>       0.01041667 </v>
  </varray>
 </kpoints>
 <parameters>
  <separator name="general" >
   <i type="string" name="SYSTEM">unknown system</i>
   <i type="logical" name="LCOMPAT"> F  </i>
  </separator>
  <separator name="electronic" >
   <i type="string" name="PREC">normal</i>
   <i name="ENMAX">    350.00000000</i>
   <i name="ENAUG">    400.00000000</i>
   <i name="EDIFF">      0.00001000</i>
   <i type="int" name="IALGO">    38</i>
   <i type="int" name="IWAVPR">    10</i>
   <i type="int" name="NBANDS">    96</i>
   <i name="NELECT">    161.00000000</i>
   <i type="int" name="TURBO">     0</i>
   <i type="int" name="IRESTART">     0</i>
   <i type="int" name="NREBOOT">     0</i>
   <i type="int" name="NMIN">     0</i>
   <i name="EREF">      0.00000000</i>
   <separator name="electronic smearing" >
    <i type="int" name="ISMEAR">     1</i>
    <i name="SIGMA">      0.20000000</i>
    <i name="KSPACING">      0.50000000</i>
    <i type="logical" name="KGAMMA"> T  </i>
   </separator>
   <separator name="electronic projectors" >
    <i type="logical" name="LREAL"> F  </i>
    <v name="ROPT">      0.00000000      0.00000000      0.00000000      0.00000000</v>
    <i type="int" name="LMAXPAW">  -100</i>
    <i type="int" name="LMAXMIX">     2</i>
    <i type="logical" name="NLSPLINE"> F  </i>
   </separator>
   <separator name="electronic startup" >
    <i type="int" name="ISTART">     0</i>
    <i type="int" name="ICHARG">     2</i>
    <i type="int" name="INIWAV">     1</i>
   </separator>
   <separator name="electronic spin" >
    <i type="int" name="ISPIN">     1</i>
    <i type="logical" name="LNONCOLLINEAR"> F  </i>
    <v name="MAGMOM">      1.00000000      1.00000000      1.00000000      1.00000000      1.00000000      1.00000000      1.00000000      1.00000000      1.00000000      1.00000000      1.00000000      1.00000000      1.00000000      1.00000000      1.00000000      1.00000000      1.00000000</v>
    <i name="NUPDOWN">     -1.00000000</i>
    <i type="logical" name="LSORBIT"> F  </i>
    <v name="SAXIS">      0.00000000      0.00000000      1.00000000</v>
    <i type="logical" name="LSPIRAL"> F  </i>
    <v name="QSPIRAL">      0.00000000      0.00000000      0.00000000</v>
    <i type="logical" name="LZEROZ"> F  </i>
   </separator>
   <separator name="electronic exchange-correlation" >
    <i type="logical" name="LASPH"> F  </i>
    <i type="logical" name="LMETAGGA"> F  </i>
   </separator>
   <separator name="electronic convergence" >
    <i type="int" name="NELM">    60</i>
    <i type="int" name="NELMDL">    -5</i>
    <i type="int" name="NELMIN">     2</i>
    <i name="ENINI">    350.00000000</i>
    <separator name="electronic convergence detail" >
     <i type="logical" name="LDIAG"> T  </i>
     <i type="logical" name="LSUBROT"> F  </i>
     <i name="WEIMIN">      0.00000000</i>
     <i name="EBREAK">      0.00000003</i>
     <i name="DEPER">      0.30000000</i>
     <i type="int" name="NRMM">     4</i>
     <i name="TIME">      0.40000000</i>
    </separator>
   </separator>
   <separator name="electronic mixer" >
    <i name="AMIX">      0.40000000</i>
    <i name="BMIX">      1.00000000</i>
    <i name="AMIN">      0.10000000</i>
    <i name="AMIX_MAG">      1.60000000</i>
    <i name="BMIX_MAG">      1.00000000</i>
    <separator name="electronic mixer details" >
     <i type="int" name="IMIX">     4</i>
     <i type="logical" name="MIXFIRST"> F  </i>
     <i type="int" name="MAXMIX">   -45</i>
     <i name="WC">    100.00000000</i>
     <i type="int" name="INIMIX">     1</i>
     <i type="int" name="MIXPRE">     1</i>
     <i type="int" name="MREMOVE">     5</i>
    </separator>
   </separator>
   <separator name="electronic dipolcorrection" >
    <i type="logical" name="LDIPOL"> F  </i>
    <i type="logical" name="LMONO"> F  </i>
    <i type="int" name="IDIPOL">     3</i>
    <i name="EPSILON">      1.00000000</i>
    <v name="DIPOL">   -100.00000000   -100.00000000   -100.00000000</v>
    <i name="EFIELD">      0.00000000</i>
   </separator>
  </separator>
  <separator name="grids" >
   <i type="int" name="NGX">    28</i>
   <i type="int" name="NGY">    28</i>
   <i type="int" name="NGZ">   144</i>
   <i type="int" name="NGXF">    56</i>
   <i type="int" name="NGYF">    56</i>
   <i type="int" name="NGZF">   288</i>
   <i type="logical" name="ADDGRID"> F  </i>
  </separator>
  <separator name="ionic" >
   <i type="int" name="NSW">     0</i>
   <i type="int" name="IBRION">    -1</i>
   <i type="int" name="MDALGO">     0</i>
   <i type="int" name="ISIF">     2</i>
   <i name="PSTRESS">      0.00000000</i>
   <i name="EDIFFG">     -0.05000000</i>
   <i type="int" name="NFREE">     1</i>
   <i name="POTIM">      0.50000000</i>
   <i name="SMASS">     -3.00000000</i>
   <i name="SCALEE">      1.00000000</i>
  </separator>
  <separator name="ionic md" >
   <i name="TEBEG">      0.00010000</i>
   <i name="TEEND">      0.00010000</i>
   <i type="int" name="NBLOCK">     1</i>
   <i type="int" name="KBLOCK">     1</i>
   <i type="int" name="NPACO">   256</i>
   <i name="APACO">     16.00000000</i>
  </separator>
  <separator name="symmetry" >
   <i type="int" name="ISYM">     2</i>
   <i name="SYMPREC">      0.00001000</i>
  </separator>
  <separator name="dos" >
   <i type="int" name="LORBIT">     0</i>
   <v name="RWIGS">     -1.00000000     -1.00000000     -1.00000000     -1.00000000</v>
   <i type="int" name="NEDOS">   301</i>
   <i name="EMIN">     10.00000000</i>
   <i name="EMAX">    -10.00000000</i>
   <i name="EFERMI">      0.00000000</i>
  </separator>
  <separator name="writing" >
   <i type="int" name="NWRITE">     2</i>
   <i type="logical" name="LWAVE"> F  </i>
   <i type="logical" name="LDOWNSAMPLE"> F  </i>
   <i type="logical" name="LCHARG"> F  </i>
   <i type="logical" name="LPARD"> F  </i>
   <i type="logical" name="LVTOT"> F  </i>
   <i type="logical" name="LVHAR"> F  </i>
   <i type="logical" name="LELF"> F  </i>
   <i type="logical" name="LOPTICS"> F  </i>
   <v name="STM">      0.00000000      0.00000000      0.00000000      0.00000000      0.00000000      0.00000000      0.00000000</v>
  </separator>
  <separator name="performance" >
   <i type="int" name="NPAR">    24</i>
   <i type="int" name="NSIM">     4</i>
   <i type="int" name="NBLK">    -1</i>
   <i type="logical" name="LPLANE"> T  </i>
   <i type="logical" name="LSCALAPACK"> T  </i>
   <i type="logical" name="LSCAAWARE"> F  </i>
   <i type="logical" name="LSCALU"> F  </i>
   <i type="logical" name="LASYNC"> F  </i>
   <i type="logical" name="LORBITALREAL"> F  </i>
  </separator>
  <separator name="miscellaneous" >
   <i type="int" name="IDIOT">     3</i>
   <i type="int" name="ISPECIAL">     0</i>
   <i type="logical" name="LMUSIC"> F  </i>
   <v name="POMASS">    192.22000000    195.08000000    196.96600000      1.00000000</v>
   <v name="DARWINR">      0.00000000      0.00000000      0.00000000      0.00000000</v>
   <v name="DARWINV">      1.00000000      1.00000000      1.00000000      1.00000000</v>
   <i type="logical" name="LCORR"> T  </i>
  </separator>
  <i type="logical" name="GGA_COMPAT"> T  </i>
  <i type="logical" name="LBERRY"> F  </i>
  <i type="int" name="ICORELEVEL">     0</i>
  <i type="logical" name="LDAU"> F  </i>
  <i type="int" name="I_CONSTRAINED_M">     0</i>
  <separator name="electronic exchange-correlation" >
   <i type="string" name="GGA">PE</i>
   <i type="int" name="VOSKOWN">     0</i>
   <i type="logical" name="LHFCALC"> F  </i>
   <i type="string" name="PRECFOCK"></i>
   <i type="logical" name="LSYMGRAD"> F  </i>
   <i type="logical" name="LHFONE"> F  </i>
   <i type="logical" name="LRHFCALC"> F  </i>
   <i type="logical" name="LTHOMAS"> F  </i>
   <i type="logical" name="LMODELHF"> F  </i>
   <i name="ENCUT4O">     -1.00000000</i>
   <i type="int" name="EXXOEP">     0</i>
   <i type="int" name="FOURORBIT">     0</i>
   <i name="AEXX">      0.00000000</i>
   <i name="HFALPHA">      0.00000000</i>
   <i name="MCALPHA">      0.00000000</i>
   <i name="ALDAX">      1.00000000</i>
   <i name="AGGAX">      1.00000000</i>
   <i name="ALDAC">      1.00000000</i>
   <i name="AGGAC">      1.00000000</i>
   <i type="int" name="NKREDX">     1</i>
   <i type="int" name="NKREDY">     1</i>
   <i type="int" name="NKREDZ">     1</i>
   <i type="logical" name="SHIFTRED"> F  </i>
   <i type="logical" name="ODDONLY"> F  </i>
   <i type="logical" name="EVENONLY"> F  </i>
   <i type="int" name="LMAXFOCK">     0</i>
   <i type="int" name="NMAXFOCKAE">     0</i>
   <i type="logical" name="LFOCKAEDFT"> F  </i>
   <i name="HFSCREEN">      0.00000000</i>
   <i name="HFSCREENC">      0.00000000</i>
   <i type="int" name="NBANDSGWLOW">     0</i>
  </separator>
  <separator name="vdW DFT" >
   <i type="logical" name="LUSE_VDW"> F  </i>
   <i name="Zab_VDW">     -0.84910000</i>
   <i name="PARAM1">      0.12340000</i>
   <i name="PARAM2">      1.00000000</i>
   <i name="PARAM3">      0.00000000</i>
  </separator>
  <separator name="model GW" >
   <i type="int" name="MODEL_GW">     0</i>
   <i name="MODEL_EPS0">     29.08686379</i>
   <i name="MODEL_ALPHA">      1.00000000</i>
  </separator>
  <separator name="linear response parameters" >
   <i type="logical" name="LEPSILON"> F  </i>
   <i type="logical" name="LRPA"> F  </i>
   <i type="logical" name="LNABLA"> F  </i>
   <i type="logical" name="LVEL"> F  </i>
   <i type="int" name="KINTER">     0</i>
   <i name="CSHIFT">      0.10000000</i>
   <i name="OMEGAMAX">     -1.00000000</i>
   <i name="DEG_THRESHOLD">      0.00200000</i>
   <i name="RTIME">     -0.10000000</i>
   <i name="WPLASMAI">      0.00000000</i>
   <v name="DFIELD">      0.00000000      0.00000000      0.00000000</v>
   <v name="WPLASMA">      0.00000000      0.00000000      0.00000000      0.00000000      0.00000000      0.00000000      0.00000000      0.00000000      0.00000000</v>
  </separator>
  <separator name="orbital magnetization" >
   <i type="logical" name="NUCIND"> F  </i>
   <v name="MAGPOS">      0.00000000      0.00000000      0.00000000</v>
   <i type="logical" name="LNICSALL"> T  </i>
   <i type="logical" name="ORBITALMAG"> F  </i>
   <i type="logical" name="LMAGBLOCH"> F  </i>
   <i type="logical" name="LCHIMAG"> F  </i>
   <i type="logical" name="LGAUGE"> T  </i>
   <i type="int" name="MAGATOM">     0</i>
   <v name="MAGDIPOL">      0.00000000      0.00000000      0.00000000</v>
   <v name="AVECCONST">      0.00000000      0.00000000      0.00000000</v>
  </separator>
  <separator name="response functions" >
   <i type="logical" name="LADDER"> F  </i>
   <i type="logical" name="LRPAFORCE"> F  </i>
   <i type="logical" name="LFXC"> F  </i>
   <i type="logical" name="LHARTREE"> T  </i>
   <i type="int" name="IBSE">     0</i>
   <v type="int" name="KPOINT">    -1     0     0     0</v>
   <i type="logical" name="LTCTE"> F  </i>
   <i type="logical" name="LTETE"> F  </i>
   <i type="logical" name="LTRIPLET"> F  </i>
   <i type="logical" name="LFXCEPS"> F  </i>
   <i type="logical" name="LFXHEG"> F  </i>
   <i type="int" name="NATURALO">     2</i>
   <i type="logical" name="L2ORDER"> F  </i>
   <i type="logical" name="LMP2LT"> F  </i>
   <i type="logical" name="LUSEW"> F  </i>
   <i name="ENCUTGW">     -2.00000000</i>
   <i name="ENCUTGWSOFT">     -2.00000000</i>
   <i name="ENCUTLF">     -1.00000000</i>
   <i type="int" name="LMAXMP2">    -1</i>
   <i name="SCISSOR">      0.00000000</i>
   <i type="int" name="NOMEGA">     0</i>
   <i type="int" name="NOMEGAR">     0</i>
   <i type="int" name="NBANDSGW">    -1</i>
   <i type="int" name="NBANDSO">    -1</i>
   <i type="int" name="NBANDSV">    -1</i>
   <i type="int" name="NELM">     1</i>
   <i type="int" name="NELMHF">     1</i>
   <i type="int" name="DIM">     3</i>
   <i type="int" name="ANTIRES">     0</i>
   <i name="OMEGAMAX">    -30.00000000</i>
   <i name="OMEGAMIN">    -30.00000000</i>
   <i name="OMEGATL">   -200.00000000</i>
   <i type="int" name="OMEGAGRID">   140</i>
   <i name="CSHIFT">     -0.10000000</i>
   <i type="logical" name="SELFENERGY"> F  </i>
   <i type="logical" name="LSPECTRAL"> F  </i>
   <i type="logical" name="LSPECTRALGW"> F  </i>
   <i type="logical" name="LSINGLES"> F  </i>
   <i type="logical" name="LFERMIGW"> F  </i>
   <i type="logical" name="ODDONLYGW"> F  </i>
   <i type="logical" name="EVENONLYGW"> F  </i>
   <i type="int" name="NKREDLFX">     1</i>
   <i type="int" name="NKREDLFY">     1</i>
   <i type="int" name="NKREDLFZ">     1</i>
   <i type="int" name="MAXMEM">  2800</i>
   <i type="int" name="TELESCOPE">     0</i>
   <i type="int" name="TAUPAR">     1</i>
   <i type="int" name="OMEGAPAR">    -1</i>
   <i name="LAMBDA">      1.00000000</i>
  </separator>
  <separator name="External order field" >
   <i name="OFIELD_KAPPA">      0.00000000</i>
   <v name="OFIELD_K">      0.00000000      0.00000000      0.00000000</v>
   <i name="OFIELD_Q6_NEAR">      0.00000000</i>
   <i name="OFIELD_Q6_FAR">      0.00000000</i>
   <i name="OFIELD_A">      0.00000000</i>
  </separator>
 </parameters>
 <atominfo>
  <atoms>      17 </atoms>
  <types>       4 </types>
  <array name="atoms" >
   <dimension dim="1">ion</dimension>
   <field type="string">element</field>
   <field type="int">atomtype</field>
   <set>
    <rc><c>Ir</c><c>   1</c></rc>
    <rc><c>Pt</c><c>   2</c></rc>
    <rc><c>Pt</c><c>   2</c></rc>
    <rc><c>Pt</c><c>   2</c></rc>
    <rc><c>Pt</c><c>   2</c></rc>
    <rc><c>Pt</c><c>   2</c></rc>
    <rc><c>Pt</c><c>   2</c></rc>
    <rc><c>Pt</c><c>   2</c></rc>
    <rc><c>Pt</c><c>   2</c></rc>
    <rc><c>Pt</c><c>   2</c></rc>
    <rc><c>Pt</c><c>   2</c></rc>
    <rc><c>Pt</c><c>   2</c></rc>
    <rc><c>Pt</c><c>   2</c></rc>
    <rc><c>Pt</c><c>   2</c></rc>
    <rc><c>Pt</c><c>   2</c></rc>
    <rc><c>Au</c><c>   3</c></rc>
    <rc><c>H </c><c>   4</c></rc>
   </set>
  </array>
  <array name="atomtypes" >
   <dimension dim="1">type</dimension>
   <field type="int">atomspertype</field>
   <field type="string">element</field>
   <field>mass</field>
   <field>valence</field>
   <field type="string">pseudopotential</field>
   <set>
    <rc><c>   1</c><c>Ir</c><c>    192.22000000</c><c>      9.00000000</c><c>  PAW_PBE Ir 06Sep2000                  </c></rc>
    <rc><c>  14</c><c>Pt</c><c>    195.08000000</c><c>     10.00000000</c><c>  PAW_PBE Pt 04Feb2005                  </c></rc>
    <rc><c>   1</c><c>Au</c><c>    196.96600000</c><c>     11.00000000</c><c>  PAW_PBE Au 04Oct2007                  </c></rc>
    <rc><c>   1</c><c>H </c><c>      1.00000000</c><c>      1.00000000</c><c>  PAW_PBE H 15Jun2001                   </c></rc>
   </set>
  </array>
 </atominfo>
 <structure name="initialpos" >
  <crystal>
   <varray name="basis" >
    <v>       5.55785930       0.00000000       0.00000000 </v>
    <v>       2.77892965       4.81324734       0.00000000 </v>
    <v>       0.00000000       0.00000000      30.80695967 </v>
   </varray>
   <i name="volume">    824.12780743 </i>
   <varray name="rec_basis" >
    <v>       0.17992539      -0.10387997       0.00000000 </v>
    <v>       0.00000000       0.20775994       0.00000000 </v>
    <v>       0.00000000       0.00000000       0.03246020 </v>
   </varray>
  </crystal>
  <varray name="positions" >
   <v>       0.00000000       0.00000000       0.38952237 </v>
   <v>       0.50000000       0.00000000       0.38952237 </v>
   <v>       0.00000000       0.50000000       0.38952237 </v>
   <v>       0.50000000       0.50000000       0.38952237 </v>
   <v>       0.16652883       0.16652883       0.46542487 </v>
   <v>       0.66694234       0.16652883       0.46542487 </v>
   <v>       0.16652883       0.66694234       0.46542487 </v>
   <v>       0.66666667       0.66666667       0.46426737 </v>
   <v>       0.83396869       0.33206261       0.54005199 </v>
   <v>       0.33333333       0.33333333       0.53994492 </v>
   <v>       0.83396869       0.83396869       0.54005199 </v>
   <v>       0.00000000       0.00000000       0.61904352 </v>
   <v>       0.50048728       0.99902544       0.61498914 </v>
   <v>       0.99902544       0.50048728       0.61498914 </v>
   <v>       0.50048728       0.50048728       0.61498914 </v>
   <v>       0.33206261       0.83396869       0.54005199 </v>
   <v>       0.00000000       0.00000000       0.66953436 </v>
  </varray>
  <varray name="selective"  type="logical" >
   <v type="logical" >  F  F  F </v>
   <v type="logical" >  F  F  F </v>
   <v type="logical" >  F  F  F </v>
   <v type="logical" >  F  F  F </v>
   <v type="logical" >  T  T  T </v>
   <v type="logical" >  T  T  T </v>
   <v type="logical" >  T  T  T </v>
   <v type="logical" >  T  T  T </v>
   <v type="logical" >  T  T  T </v>
   <v type="logical" >  T  T  T </v>
   <v type="logical" >  T  T  T </v>
   <v type="logical" >  T  T  T </v>
   <v type="logical" >  T  T  T </v>
   <v type="logical" >  T  T  T </v>
   <v type="logical" >  T  T  T </v>
   <v type="logical" >  T  T  T </v>
   <v type="logical" >  T  T  T </v>
  </varray>
  <nose>
   <v>      -3.00000000       0.00000000       0.00010000       0.00010000 </v>
  </nose>
 </structure>
 <calculation>
  <scstep>
   <time name="dav">    9.21    9.21</time>
   <time name="total">    9.23    9.24</time>
   <energy>
    <i name="alphaZ">    305.89839443 </i>
    <i name="ewald">  99026.97233169 </i>
    <i name="hartreedc">-111114.70690801 </i>
    <i name="XCdc">     48.74461062 </i>
    <i name="pawpsdc">  11173.35063782 </i>
    <i name="pawaedc"> -10713.98924482 </i>
    <i name="eentropy">      0.00814879 </i>
    <i name="bandstr">    547.13212077 </i>
    <i name="atom">  11706.16234457 </i>
    <i name="e_fr_energy">    979.57243585 </i>
    <i name="e_wo_entrp">    979.56428706 </i>
    <i name="e_0_energy">    979.56971959 </i>
   </energy>
  </scstep>
  <scstep>
   <time name="dav">   13.13   13.13</time>
   <time name="total">   13.13   13.13</time>
   <energy>
    <i name="e_fr_energy">    -42.47575659 </i>
    <i name="e_wo_entrp">    -42.47141231 </i>
    <i name="e_0_energy">    -42.47430850 </i>
   </energy>
  </scstep>
  <scstep>
   <time name="dav">   11.32   11.32</time>
   <time name="total">   11.32   11.32</time>
   <energy>
    <i name="e_fr_energy">   -100.97602376 </i>
    <i name="e_wo_entrp">   -100.96451842 </i>
    <i name="e_0_energy">   -100.97218865 </i>
   </energy>
  </scstep>
  <scstep>
   <time name="dav">   12.50   12.50</time>
   <time name="total">   12.50   12.51</time>
   <energy>
    <i name="e_fr_energy">   -102.22620622 </i>
    <i name="e_wo_entrp">   -102.21407492 </i>
    <i name="e_0_energy">   -102.22216246 </i>
   </energy>
  </scstep>
  <scstep>
   <time name="dav">   13.46   13.46</time>
   <time name="total">   13.78   13.78</time>
   <energy>
    <i name="e_fr_energy">   -102.25715696 </i>
    <i name="e_wo_entrp">   -102.24500679 </i>
    <i name="e_0_energy">   -102.25310690 </i>
   </energy>
  </scstep>
  <scstep>
   <time name="dav">   11.01   11.01</time>
   <time name="total">   11.35   11.35</time>
   <energy>
    <i name="e_fr_energy">    -98.05838181 </i>
    <i name="e_wo_entrp">    -98.04026555 </i>
    <i name="e_0_energy">    -98.05234305 </i>
   </energy>
  </scstep>
  <scstep>
   <time name="dav">   11.83   11.84</time>
   <time name="total">   12.17   12.18</time>
   <energy>
    <i name="e_fr_energy">   -120.30494031 </i>
    <i name="e_wo_entrp">   -120.31405945 </i>
    <i name="e_0_energy">   -120.30798002 </i>
   </energy>
  </scstep>
  <scstep>
   <time name="dav">   12.54   12.54</time>
   <time name="total">   12.88   12.88</time>
   <energy>
    <i name="e_fr_energy">   -100.48845999 </i>
    <i name="e_wo_entrp">   -100.48744453 </i>
    <i name="e_0_energy">   -100.48812150 </i>
   </energy>
  </scstep>
  <scstep>
   <time name="dav">   12.18   12.18</time>
   <time name="total">   12.52   12.52</time>
   <energy>
    <i name="e_fr_energy">   -106.34936854 </i>
    <i name="e_wo_entrp">   -106.34320287 </i>
    <i name="e_0_energy">   -106.34731332 </i>
   </energy>
  </scstep>
  <scstep>
   <time name="dav">   12.93   12.93</time>
   <time name="total">   13.27   13.27</time>
   <energy>
    <i name="e_fr_energy">   -100.88103693 </i>
    <i name="e_wo_entrp">   -100.86206505 </i>
    <i name="e_0_energy">   -100.87471297 </i>
   </energy>
  </scstep>
  <scstep>
   <time name="dav">   13.81   13.81</time>
   <time name="total">   14.15   14.16</time>
   <energy>
    <i name="e_fr_energy">    -97.00515759 </i>
    <i name="e_wo_entrp">    -96.98487859 </i>
    <i name="e_0_energy">    -96.99839792 </i>
   </energy>
  </scstep>
  <scstep>
   <time name="dav">   12.75   12.76</time>
   <time name="total">   13.09   13.10</time>
   <energy>
    <i name="e_fr_energy">    -96.28959730 </i>
    <i name="e_wo_entrp">    -96.28260534 </i>
    <i name="e_0_energy">    -96.28726665 </i>
   </energy>
  </scstep>
  <scstep>
   <time name="dav">   12.65   12.66</time>
   <time name="total">   12.99   13.00</time>
   <energy>
    <i name="e_fr_energy">    -95.73550156 </i>
    <i name="e_wo_entrp">    -95.71927016 </i>
    <i name="e_0_energy">    -95.73009110 </i>
   </energy>
  </scstep>
  <scstep>
   <time name="dav">   10.69   10.69</time>
   <time name="total">   11.02   11.03</time>
   <energy>
    <i name="e_fr_energy">    -95.60786358 </i>
    <i name="e_wo_entrp">    -95.59720391 </i>
    <i name="e_0_energy">    -95.60431036 </i>
   </energy>
  </scstep>
  <scstep>
   <time name="dav">   12.37   12.37</time>
   <time name="total">   12.71   12.71</time>
   <energy>
    <i name="e_fr_energy">    -95.57026766 </i>
    <i name="e_wo_entrp">    -95.55822556 </i>
    <i name="e_0_energy">    -95.56625363 </i>
   </energy>
  </scstep>
  <scstep>
   <time name="dav">   12.27   12.27</time>
   <time name="total">   12.61   12.61</time>
   <energy>
    <i name="e_fr_energy">    -95.55393645 </i>
    <i name="e_wo_entrp">    -95.54199210 </i>
    <i name="e_0_energy">    -95.54995500 </i>
   </energy>
  </scstep>
  <scstep>
   <time name="dav">   11.28   11.28</time>
   <time name="total">   11.62   11.62</time>
   <energy>
    <i name="e_fr_energy">    -95.53838642 </i>
    <i name="e_wo_entrp">    -95.52454595 </i>
    <i name="e_0_energy">    -95.53377293 </i>
   </energy>
  </scstep>
  <scstep>
   <time name="dav">   10.21   10.21</time>
   <time name="total">   10.55   10.55</time>
   <energy>
    <i name="e_fr_energy">    -95.53471151 </i>
    <i name="e_wo_entrp">    -95.52217686 </i>
    <i name="e_0_energy">    -95.53053329 </i>
   </energy>
  </scstep>
  <scstep>
   <time name="dav">   11.76   11.76</time>
   <time name="total">   12.10   12.10</time>
   <energy>
    <i name="e_fr_energy">    -95.53249652 </i>
    <i name="e_wo_entrp">    -95.51915199 </i>
    <i name="e_0_energy">    -95.52804834 </i>
   </energy>
  </scstep>
  <scstep>
   <time name="dav">   13.23   13.23</time>
   <time name="total">   13.57   13.57</time>
   <energy>
    <i name="e_fr_energy">    -95.53223638 </i>
    <i name="e_wo_entrp">    -95.51896114 </i>
    <i name="e_0_energy">    -95.52781130 </i>
   </energy>
  </scstep>
  <scstep>
   <time name="dav">   10.63   10.63</time>
   <time name="total">   10.97   10.98</time>
   <energy>
    <i name="e_fr_energy">    -95.53203243 </i>
    <i name="e_wo_entrp">    -95.51889143 </i>
    <i name="e_0_energy">    -95.52765210 </i>
   </energy>
  </scstep>
  <scstep>
   <time name="dav">   11.22   11.22</time>
   <time name="total">   11.56   11.56</time>
   <energy>
    <i name="e_fr_energy">    -95.53199667 </i>
    <i name="e_wo_entrp">    -95.51888739 </i>
    <i name="e_0_energy">    -95.52762691 </i>
   </energy>
  </scstep>
  <scstep>
   <time name="dav">   11.10   11.10</time>
   <time name="total">   11.44   11.44</time>
   <energy>
    <i name="e_fr_energy">    -95.53192327 </i>
    <i name="e_wo_entrp">    -95.51888275 </i>
    <i name="e_0_energy">    -95.52757643 </i>
   </energy>
  </scstep>
  <scstep>
   <time name="dav">    8.80    8.81</time>
   <time name="total">    9.14    9.15</time>
   <energy>
    <i name="e_fr_energy">    -95.53194220 </i>
    <i name="e_wo_entrp">    -95.51878815 </i>
    <i name="e_0_energy">    -95.52755752 </i>
   </energy>
  </scstep>
  <scstep>
   <time name="dav">    7.58    7.58</time>
   <time name="total">    7.92    7.92</time>
   <energy>
    <i name="e_fr_energy">    -95.53199057 </i>
    <i name="e_wo_entrp">    -95.51889207 </i>
    <i name="e_0_energy">    -95.52762441 </i>
   </energy>
  </scstep>
  <scstep>
   <time name="dav">    8.72    8.72</time>
   <time name="total">    9.06    9.06</time>
   <energy>
    <i name="e_fr_energy">    -95.53206616 </i>
    <i name="e_wo_entrp">    -95.51900667 </i>
    <i name="e_0_energy">    -95.52771300 </i>
   </energy>
  </scstep>
  <scstep>
   <time name="dav">    7.92    7.92</time>
   <time name="total">    8.26    8.27</time>
   <energy>
    <i name="e_fr_energy">    -95.53211896 </i>
    <i name="e_wo_entrp">    -95.51907161 </i>
    <i name="e_0_energy">    -95.52776985 </i>
   </energy>
  </scstep>
  <scstep>
   <time name="dav">    8.05    8.06</time>
   <time name="total">    8.40    8.40</time>
   <energy>
    <i name="e_fr_energy">    -95.53216397 </i>
    <i name="e_wo_entrp">    -95.51906699 </i>
    <i name="e_0_energy">    -95.52779831 </i>
   </energy>
  </scstep>
  <scstep>
   <time name="dav">    7.84    7.84</time>
   <time name="total">    8.18    8.18</time>
   <energy>
    <i name="e_fr_energy">    -95.53222825 </i>
    <i name="e_wo_entrp">    -95.51913200 </i>
    <i name="e_0_energy">    -95.52786283 </i>
   </energy>
  </scstep>
  <scstep>
   <time name="dav">    7.72    7.72</time>
   <time name="total">    8.06    8.06</time>
   <energy>
    <i name="e_fr_energy">    -95.53231280 </i>
    <i name="e_wo_entrp">    -95.51920021 </i>
    <i name="e_0_energy">    -95.52794193 </i>
   </energy>
  </scstep>
  <scstep>
   <time name="dav">    7.81    7.81</time>
   <time name="total">    8.16    8.16</time>
   <energy>
    <i name="e_fr_energy">    -95.53235294 </i>
    <i name="e_wo_entrp">    -95.51923983 </i>
    <i name="e_0_energy">    -95.52798191 </i>
   </energy>
  </scstep>
  <scstep>
   <time name="dav">    7.46    7.47</time>
   <time name="total">    7.81    7.81</time>
   <energy>
    <i name="e_fr_energy">    -95.53236795 </i>
    <i name="e_wo_entrp">    -95.51926244 </i>
    <i name="e_0_energy">    -95.52799945 </i>
   </energy>
  </scstep>
  <scstep>
   <time name="dav">    6.77    6.77</time>
   <time name="total">    6.79    6.80</time>
   <energy>
    <i name="alphaZ">    305.89839443 </i>
    <i name="ewald">  99026.97233169 </i>
    <i name="hartreedc">-110956.76140599 </i>
    <i name="XCdc">     43.35068585 </i>
    <i name="pawpsdc">  14224.54589881 </i>
    <i name="pawaedc"> -13810.04274591 </i>
    <i name="eentropy">     -0.01310249 </i>
    <i name="bandstr">   -635.64477851 </i>
    <i name="atom">  11706.16234457 </i>
    <i name="e_fr_energy">    -95.53237753 </i>
    <i name="e_wo_entrp">    -95.51927504 </i>
    <i name="e_0_energy">    -95.52801004 </i>
   </energy>
  </scstep>
  <dipole>
   <v name="dipole">      0.00000000       0.00000000      -0.05100833 </v>
   <i name="Tr[quadrupol]">   -954.19899021 </i>
   <i name="Echarged">      0.00000000 </i>
   <i name="Edipol_quadrupol">      0.00000000 </i>
   <i name="Eion">      0.00000000 </i>
  </dipole>
  <structure>
   <crystal>
    <varray name="basis" >
     <v>       5.55785930       0.00000000       0.00000000 </v>
     <v>       2.77892965       4.81324734       0.00000000 </v>
     <v>       0.00000000       0.00000000      30.80695967 </v>
    </varray>
    <i name="volume">    824.12780743 </i>
    <varray name="rec_basis" >
     <v>       0.17992539      -0.10387997       0.00000000 </v>
     <v>       0.00000000       0.20775994       0.00000000 </v>
     <v>       0.00000000       0.00000000       0.03246020 </v>
    </varray>
   </crystal>
   <varray name="positions" >
    <v>       0.00000000       0.00000000       0.38952237 </v>
    <v>       0.50000000       0.00000000       0.38952237 </v>
    <v>       0.00000000       0.50000000       0.38952237 </v>
    <v>       0.50000000       0.50000000       0.38952237 </v>
    <v>       0.16652883       0.16652883       0.46542487 </v>
    <v>       0.66694234       0.16652883       0.46542487 </v>
    <v>       0.16652883       0.66694234       0.46542487 </v>
    <v>       0.66666667       0.66666667       0.46426737 </v>
    <v>       0.83396869       0.33206261       0.54005199 </v>
    <v>       0.33333333       0.33333333       0.53994492 </v>
    <v>       0.83396869       0.83396869       0.54005199 </v>
    <v>       0.00000000       0.00000000       0.61904352 </v>
    <v>       0.50048728       0.99902544       0.61498914 </v>
    <v>       0.99902544       0.50048728       0.61498914 </v>
    <v>       0.50048728       0.50048728       0.61498914 </v>
    <v>       0.33206261       0.83396869       0.54005199 </v>
    <v>       0.00000000       0.00000000       0.66953436 </v>
   </varray>
  </structure>
  <varray name="forces" >
   <v>       0.01194077      -0.00689401       1.24133657 </v>
   <v>      -0.01557799       0.12711730      -0.09995150 </v>
   <v>       0.08635526      -0.04985723      -0.32074174 </v>
   <v>      -0.11787581      -0.05006772      -0.09995150 </v>
   <v>      -0.14204275       0.10779378      -0.48140432 </v>
   <v>       0.12340626      -0.07124864      -0.23466870 </v>
   <v>      -0.16437353       0.06911575      -0.48140432 </v>
   <v>       0.10866153      -0.06273576      -0.02363792 </v>
   <v>      -0.02571811       0.02389880       0.03248992 </v>
   <v>       0.04899262      -0.02828590      -0.20972283 </v>
   <v>      -0.03355602       0.01032314       0.03248992 </v>
   <v>      -0.06474172       0.03737865       0.12847743 </v>
   <v>       0.11491856       0.10743342       0.22867043 </v>
   <v>       0.03699788      -0.02136074      -0.08679370 </v>
   <v>      -0.03558079      -0.15323910       0.22867043 </v>
   <v>       0.02634420      -0.01520983       0.16007999 </v>
   <v>       0.04184962      -0.02416189      -0.01393815 </v>
  </varray>
  <varray name="stress" >
   <v>     -21.87484467       0.00833917       1.18427097 </v>
   <v>       0.00833917     -21.86521543      -0.68373916 </v>
   <v>       1.18427119      -0.68373929      -1.42994074 </v>
  </varray>
  <energy>
   <i name="e_fr_energy">    -95.53209189 </i>
   <i name="e_wo_entrp">    -95.52772439 </i>
   <i name="e_0_energy">     -0.01310249 </i>
  </energy>
  <time name="totalsc">  375.67  375.79</time>
  <eigenvalues>
   <array>
    <dimension dim="1">band</dimension>
    <dimension dim="2">kpoint</dimension>
    <dimension dim="3">spin</dimension>
    <field>eigene</field>
    <field>occ</field>
    <set>
     <set comment="spin 1">
      <set comment="kpoint 1">
       <r>  -10.1084    1.0000 </r>
       <r>   -8.8442    1.0000 </r>
       <r>   -7.7618    1.0000 </r>
       <r>   -7.6511    1.0000 </r>
       <r>   -7.4655    1.0000 </r>
       <r>   -7.4366    1.0000 </r>
       <r>   -7.3418    1.0000 </r>
       <r>   -7.2970    1.0000 </r>
       <r>   -7.2699    1.0000 </r>
       <r>   -7.1564    1.0000 </r>
       <r>   -6.8822    1.0000 </r>
       <r>   -6.8061    1.0000 </r>
       <r>   -6.7561    1.0000 </r>
       <r>   -6.5507    1.0000 </r>
       <r>   -6.5245    1.0000 </r>
       <r>   -6.5022    1.0000 </r>
       <r>   -6.4384    1.0000 </r>
       <r>   -6.3953    1.0000 </r>
       <r>   -6.3833    1.0000 </r>
       <r>   -5.9727    1.0000 </r>
       <r>   -5.6346    1.0000 </r>
       <r>   -5.5870    1.0000 </r>
       <r>   -5.5068    1.0000 </r>
       <r>   -4.8794    1.0000 </r>
       <r>   -4.8171    1.0000 </r>
       <r>   -4.7119    1.0000 </r>
       <r>   -4.6357    1.0000 </r>
       <r>   -4.6148    1.0000 </r>
       <r>   -4.5877    1.0000 </r>
       <r>   -4.5407    1.0000 </r>
       <r>   -4.3931    1.0000 </r>
       <r>   -4.3461    1.0000 </r>
       <r>   -4.2927    1.0000 </r>
       <r>   -4.1767    1.0000 </r>
       <r>   -4.1356    1.0000 </r>
       <r>   -4.0281    1.0000 </r>
       <r>   -4.0031    1.0000 </r>
       <r>   -3.8028    1.0000 </r>
       <r>   -3.7512    1.0000 </r>
       <r>   -3.7116    1.0000 </r>
       <r>   -3.6239    1.0000 </r>
       <r>   -3.5761    1.0000 </r>
       <r>   -3.4634    1.0000 </r>
       <r>   -3.4145    1.0000 </r>
       <r>   -3.3560    1.0000 </r>
       <r>   -3.0342    1.0000 </r>
       <r>   -2.9910    1.0000 </r>
       <r>   -2.9000    1.0000 </r>
       <r>   -2.8681    1.0000 </r>
       <r>   -2.7295    1.0000 </r>
       <r>   -2.6790    1.0000 </r>
       <r>   -2.4242    1.0000 </r>
       <r>   -2.3710    1.0000 </r>
       <r>   -2.3261    1.0000 </r>
       <r>   -1.9163    1.0000 </r>
       <r>   -1.8846    1.0000 </r>
       <r>   -1.7885    1.0000 </r>
       <r>   -1.6903    1.0000 </r>
       <r>   -1.6732    1.0000 </r>
       <r>   -1.6069    1.0000 </r>
       <r>   -1.5432    1.0000 </r>
       <r>   -1.5163    1.0000 </r>
       <r>   -1.2016    1.0025 </r>
       <r>   -1.1758    1.0041 </r>
       <r>   -1.1260    1.0096 </r>
       <r>   -1.0784    1.0184 </r>
       <r>   -1.0561    1.0234 </r>
       <r>   -1.0232    1.0307 </r>
       <r>   -0.9843    1.0354 </r>
       <r>   -0.9583    1.0328 </r>
       <r>   -0.8796    0.9633 </r>
       <r>   -0.8366    0.8673 </r>
       <r>   -0.7647    0.6134 </r>
       <r>   -0.6336    0.1192 </r>
       <r>   -0.5970    0.0390 </r>
       <r>   -0.5695    0.0003 </r>
       <r>   -0.4963   -0.0354 </r>
       <r>   -0.4064   -0.0205 </r>
       <r>   -0.3265   -0.0067 </r>
       <r>   -0.2841   -0.0031 </r>
       <r>   -0.2455   -0.0014 </r>
       <r>   -0.1891   -0.0004 </r>
       <r>   -0.1684   -0.0002 </r>
       <r>   -0.0092   -0.0000 </r>
       <r>    0.0675   -0.0000 </r>
       <r>    0.1740   -0.0000 </r>
       <r>    0.4481   -0.0000 </r>
       <r>    0.4740   -0.0000 </r>
       <r>    1.2149   -0.0000 </r>
       <r>    1.4569   -0.0000 </r>
       <r>    1.6028   -0.0000 </r>
       <r>    1.7093   -0.0000 </r>
       <r>    1.7846   -0.0000 </r>
       <r>    1.8245   -0.0000 </r>
       <r>    2.4458   -0.0000 </r>
       <r>    2.5815   -0.0000 </r>
      </set>
      <set comment="kpoint 2">
       <r>  -10.1084    1.0000 </r>
       <r>   -8.8442    1.0000 </r>
       <r>   -7.7621    1.0000 </r>
       <r>   -7.6512    1.0000 </r>
       <r>   -7.4721    1.0000 </r>
       <r>   -7.4268    1.0000 </r>
       <r>   -7.3440    1.0000 </r>
       <r>   -7.3016    1.0000 </r>
       <r>   -7.2638    1.0000 </r>
       <r>   -7.1586    1.0000 </r>
       <r>   -6.8829    1.0000 </r>
       <r>   -6.8055    1.0000 </r>
       <r>   -6.7562    1.0000 </r>
       <r>   -6.5526    1.0000 </r>
       <r>   -6.5123    1.0000 </r>
       <r>   -6.5121    1.0000 </r>
       <r>   -6.4388    1.0000 </r>
       <r>   -6.3954    1.0000 </r>
       <r>   -6.3834    1.0000 </r>
       <r>   -5.9723    1.0000 </r>
       <r>   -5.6350    1.0000 </r>
       <r>   -5.5872    1.0000 </r>
       <r>   -5.5056    1.0000 </r>
       <r>   -4.8775    1.0000 </r>
       <r>   -4.8198    1.0000 </r>
       <r>   -4.7077    1.0000 </r>
       <r>   -4.6376    1.0000 </r>
       <r>   -4.6025    1.0000 </r>
       <r>   -4.6001    1.0000 </r>
       <r>   -4.5400    1.0000 </r>
       <r>   -4.3913    1.0000 </r>
       <r>   -4.3481    1.0000 </r>
       <r>   -4.2848    1.0000 </r>
       <r>   -4.1981    1.0000 </r>
       <r>   -4.1292    1.0000 </r>
       <r>   -4.0209    1.0000 </r>
       <r>   -4.0026    1.0000 </r>
       <r>   -3.8043    1.0000 </r>
       <r>   -3.7539    1.0000 </r>
       <r>   -3.7108    1.0000 </r>
       <r>   -3.6225    1.0000 </r>
       <r>   -3.5763    1.0000 </r>
       <r>   -3.4610    1.0000 </r>
       <r>   -3.4227    1.0000 </r>
       <r>   -3.3504    1.0000 </r>
       <r>   -3.0407    1.0000 </r>
       <r>   -2.9846    1.0000 </r>
       <r>   -2.8707    1.0000 </r>
       <r>   -2.8550    1.0000 </r>
       <r>   -2.8018    1.0000 </r>
       <r>   -2.6557    1.0000 </r>
       <r>   -2.4223    1.0000 </r>
       <r>   -2.3709    1.0000 </r>
       <r>   -2.3314    1.0000 </r>
       <r>   -1.9094    1.0000 </r>
       <r>   -1.8692    1.0000 </r>
       <r>   -1.8045    1.0000 </r>
       <r>   -1.6982    1.0000 </r>
       <r>   -1.6604    1.0000 </r>
       <r>   -1.6024    1.0000 </r>
       <r>   -1.5344    1.0000 </r>
       <r>   -1.5293    1.0000 </r>
       <r>   -1.1900    1.0031 </r>
       <r>   -1.1690    1.0047 </r>
       <r>   -1.1364    1.0082 </r>
       <r>   -1.1047    1.0131 </r>
       <r>   -1.0856    1.0168 </r>
       <r>   -1.0027    1.0341 </r>
       <r>   -0.9863    1.0354 </r>
       <r>   -0.9105    1.0047 </r>
       <r>   -0.8833    0.9694 </r>
       <r>   -0.8357    0.8648 </r>
       <r>   -0.7766    0.6615 </r>
       <r>   -0.6365    0.1268 </r>
       <r>   -0.6147    0.0737 </r>
       <r>   -0.5267   -0.0299 </r>
       <r>   -0.5210   -0.0317 </r>
       <r>   -0.4018   -0.0195 </r>
       <r>   -0.3362   -0.0078 </r>
       <r>   -0.2798   -0.0028 </r>
       <r>   -0.2290   -0.0010 </r>
       <r>   -0.1887   -0.0004 </r>
       <r>   -0.1873   -0.0003 </r>
       <r>   -0.0069   -0.0000 </r>
       <r>    0.0709   -0.0000 </r>
       <r>    0.1717   -0.0000 </r>
       <r>    0.4508   -0.0000 </r>
       <r>    0.4661   -0.0000 </r>
       <r>    1.2161   -0.0000 </r>
       <r>    1.4503   -0.0000 </r>
       <r>    1.6277   -0.0000 </r>
       <r>    1.6872   -0.0000 </r>
       <r>    1.7896   -0.0000 </r>
       <r>    1.8304   -0.0000 </r>
       <r>    2.3929   -0.0000 </r>
       <r>    2.6169   -0.0000 </r>
      </set>
      <set comment="kpoint 3">
       <r>   -9.9054    1.0000 </r>
       <r>   -8.6449    1.0000 </r>
       <r>   -7.5661    1.0000 </r>
       <r>   -7.4576    1.0000 </r>
       <r>   -7.4229    1.0000 </r>
       <r>   -7.3251    1.0000 </r>
       <r>   -7.2220    1.0000 </r>
       <r>   -7.1963    1.0000 </r>
       <r>   -7.1323    1.0000 </r>
       <r>   -7.0232    1.0000 </r>
       <r>   -6.7881    1.0000 </r>
       <r>   -6.7020    1.0000 </r>
       <r>   -6.6697    1.0000 </r>
       <r>   -6.5020    1.0000 </r>
       <r>   -6.4387    1.0000 </r>
       <r>   -6.3341    1.0000 </r>
       <r>   -6.3142    1.0000 </r>
       <r>   -6.2663    1.0000 </r>
       <r>   -6.1955    1.0000 </r>
       <r>   -5.9206    1.0000 </r>
       <r>   -5.5751    1.0000 </r>
       <r>   -5.5304    1.0000 </r>
       <r>   -5.4522    1.0000 </r>
       <r>   -4.8756    1.0000 </r>
       <r>   -4.8431    1.0000 </r>
       <r>   -4.7409    1.0000 </r>
       <r>   -4.7035    1.0000 </r>
       <r>   -4.5985    1.0000 </r>
       <r>   -4.5478    1.0000 </r>
       <r>   -4.5195    1.0000 </r>
       <r>   -4.4761    1.0000 </r>
       <r>   -4.3872    1.0000 </r>
       <r>   -4.2270    1.0000 </r>
       <r>   -4.1000    1.0000 </r>
       <r>   -4.0782    1.0000 </r>
       <r>   -3.9832    1.0000 </r>
       <r>   -3.9505    1.0000 </r>
       <r>   -3.8629    1.0000 </r>
       <r>   -3.8171    1.0000 </r>
       <r>   -3.7490    1.0000 </r>
       <r>   -3.6077    1.0000 </r>
       <r>   -3.5924    1.0000 </r>
       <r>   -3.5604    1.0000 </r>
       <r>   -3.5139    1.0000 </r>
       <r>   -3.4254    1.0000 </r>
       <r>   -3.3443    1.0000 </r>
       <r>   -3.2134    1.0000 </r>
       <r>   -3.0937    1.0000 </r>
       <r>   -2.9341    1.0000 </r>
       <r>   -2.7904    1.0000 </r>
       <r>   -2.6585    1.0000 </r>
       <r>   -2.6101    1.0000 </r>
       <r>   -2.4494    1.0000 </r>
       <r>   -2.4119    1.0000 </r>
       <r>   -2.0353    1.0000 </r>
       <r>   -1.9557    1.0000 </r>
       <r>   -1.9185    1.0000 </r>
       <r>   -1.8877    1.0000 </r>
       <r>   -1.8130    1.0000 </r>
       <r>   -1.7488    1.0000 </r>
       <r>   -1.7089    1.0000 </r>
       <r>   -1.6963    1.0000 </r>
       <r>   -1.5847    1.0000 </r>
       <r>   -1.5386    1.0000 </r>
       <r>   -1.5043    1.0000 </r>
       <r>   -1.4359    1.0000 </r>
       <r>   -1.2881    1.0003 </r>
       <r>   -1.2089    1.0021 </r>
       <r>   -1.1485    1.0067 </r>
       <r>   -1.0535    1.0240 </r>
       <r>   -1.0416    1.0267 </r>
       <r>   -0.9652    1.0342 </r>
       <r>   -0.9351    1.0238 </r>
       <r>   -0.8373    0.8693 </r>
       <r>   -0.8068    0.7743 </r>
       <r>   -0.7706    0.6374 </r>
       <r>   -0.7150    0.4051 </r>
       <r>   -0.6972    0.3326 </r>
       <r>   -0.6666    0.2196 </r>
       <r>   -0.5950    0.0357 </r>
       <r>   -0.5354   -0.0262 </r>
       <r>   -0.4086   -0.0210 </r>
       <r>   -0.3319   -0.0073 </r>
       <r>   -0.2979   -0.0040 </r>
       <r>   -0.1105   -0.0000 </r>
       <r>    0.2432   -0.0000 </r>
       <r>    0.3183   -0.0000 </r>
       <r>    0.5720   -0.0000 </r>
       <r>    0.8774   -0.0000 </r>
       <r>    1.0819   -0.0000 </r>
       <r>    1.3493   -0.0000 </r>
       <r>    1.6334   -0.0000 </r>
       <r>    2.1829   -0.0000 </r>
       <r>    2.4937   -0.0000 </r>
       <r>    2.7807   -0.0000 </r>
       <r>    3.0702   -0.0000 </r>
      </set>
      <set comment="kpoint 4">
       <r>   -9.9054    1.0000 </r>
       <r>   -8.6450    1.0000 </r>
       <r>   -7.5619    1.0000 </r>
       <r>   -7.4569    1.0000 </r>
       <r>   -7.4137    1.0000 </r>
       <r>   -7.3452    1.0000 </r>
       <r>   -7.2179    1.0000 </r>
       <r>   -7.1842    1.0000 </r>
       <r>   -7.1541    1.0000 </r>
       <r>   -7.0114    1.0000 </r>
       <r>   -6.7804    1.0000 </r>
       <r>   -6.7095    1.0000 </r>
       <r>   -6.6663    1.0000 </r>
       <r>   -6.5066    1.0000 </r>
       <r>   -6.4383    1.0000 </r>
       <r>   -6.3325    1.0000 </r>
       <r>   -6.3092    1.0000 </r>
       <r>   -6.2708    1.0000 </r>
       <r>   -6.1902    1.0000 </r>
       <r>   -5.9244    1.0000 </r>
       <r>   -5.5744    1.0000 </r>
       <r>   -5.5268    1.0000 </r>
       <r>   -5.4621    1.0000 </r>
       <r>   -4.9025    1.0000 </r>
       <r>   -4.7968    1.0000 </r>
       <r>   -4.7779    1.0000 </r>
       <r>   -4.7200    1.0000 </r>
       <r>   -4.6112    1.0000 </r>
       <r>   -4.5390    1.0000 </r>
       <r>   -4.5208    1.0000 </r>
       <r>   -4.4500    1.0000 </r>
       <r>   -4.3815    1.0000 </r>
       <r>   -4.2169    1.0000 </r>
       <r>   -4.0815    1.0000 </r>
       <r>   -4.0675    1.0000 </r>
       <r>   -4.0270    1.0000 </r>
       <r>   -3.9614    1.0000 </r>
       <r>   -3.8558    1.0000 </r>
       <r>   -3.7933    1.0000 </r>
       <r>   -3.7431    1.0000 </r>
       <r>   -3.6337    1.0000 </r>
       <r>   -3.5742    1.0000 </r>
       <r>   -3.5502    1.0000 </r>
       <r>   -3.5297    1.0000 </r>
       <r>   -3.4280    1.0000 </r>
       <r>   -3.3525    1.0000 </r>
       <r>   -3.2186    1.0000 </r>
       <r>   -3.1088    1.0000 </r>
       <r>   -2.8487    1.0000 </r>
       <r>   -2.7901    1.0000 </r>
       <r>   -2.6785    1.0000 </r>
       <r>   -2.5977    1.0000 </r>
       <r>   -2.4682    1.0000 </r>
       <r>   -2.4167    1.0000 </r>
       <r>   -2.0686    1.0000 </r>
       <r>   -1.9199    1.0000 </r>
       <r>   -1.8853    1.0000 </r>
       <r>   -1.8535    1.0000 </r>
       <r>   -1.8225    1.0000 </r>
       <r>   -1.8063    1.0000 </r>
       <r>   -1.7314    1.0000 </r>
       <r>   -1.6744    1.0000 </r>
       <r>   -1.6046    1.0000 </r>
       <r>   -1.5530    1.0000 </r>
       <r>   -1.5101    1.0000 </r>
       <r>   -1.4178    1.0000 </r>
       <r>   -1.2519    1.0008 </r>
       <r>   -1.2133    1.0020 </r>
       <r>   -1.1521    1.0063 </r>
       <r>   -1.1298    1.0090 </r>
       <r>   -1.0268    1.0300 </r>
       <r>   -0.9885    1.0353 </r>
       <r>   -0.9225    1.0154 </r>
       <r>   -0.8667    0.9393 </r>
       <r>   -0.8259    0.8362 </r>
       <r>   -0.7360    0.4932 </r>
       <r>   -0.7222    0.4351 </r>
       <r>   -0.6801    0.2673 </r>
       <r>   -0.6367    0.1275 </r>
       <r>   -0.5726    0.0038 </r>
       <r>   -0.4938   -0.0355 </r>
       <r>   -0.4600   -0.0322 </r>
       <r>   -0.3574   -0.0109 </r>
       <r>   -0.2859   -0.0032 </r>
       <r>   -0.1101   -0.0000 </r>
       <r>    0.2385   -0.0000 </r>
       <r>    0.3297   -0.0000 </r>
       <r>    0.5749   -0.0000 </r>
       <r>    0.8835   -0.0000 </r>
       <r>    1.1033   -0.0000 </r>
       <r>    1.3356   -0.0000 </r>
       <r>    1.6355   -0.0000 </r>
       <r>    2.1798   -0.0000 </r>
       <r>    2.4996   -0.0000 </r>
       <r>    2.7939   -0.0000 </r>
       <r>    3.0801   -0.0000 </r>
      </set>
      <set comment="kpoint 5">
       <r>   -9.9054    1.0000 </r>
       <r>   -8.6450    1.0000 </r>
       <r>   -7.5636    1.0000 </r>
       <r>   -7.4574    1.0000 </r>
       <r>   -7.4199    1.0000 </r>
       <r>   -7.3353    1.0000 </r>
       <r>   -7.2199    1.0000 </r>
       <r>   -7.1883    1.0000 </r>
       <r>   -7.1440    1.0000 </r>
       <r>   -7.0163    1.0000 </r>
       <r>   -6.7867    1.0000 </r>
       <r>   -6.7044    1.0000 </r>
       <r>   -6.6676    1.0000 </r>
       <r>   -6.5073    1.0000 </r>
       <r>   -6.4354    1.0000 </r>
       <r>   -6.3279    1.0000 </r>
       <r>   -6.3171    1.0000 </r>
       <r>   -6.2679    1.0000 </r>
       <r>   -6.1948    1.0000 </r>
       <r>   -5.9218    1.0000 </r>
       <r>   -5.5742    1.0000 </r>
       <r>   -5.5297    1.0000 </r>
       <r>   -5.4565    1.0000 </r>
       <r>   -4.8801    1.0000 </r>
       <r>   -4.8387    1.0000 </r>
       <r>   -4.7463    1.0000 </r>
       <r>   -4.7077    1.0000 </r>
       <r>   -4.6093    1.0000 </r>
       <r>   -4.5496    1.0000 </r>
       <r>   -4.5092    1.0000 </r>
       <r>   -4.4646    1.0000 </r>
       <r>   -4.3921    1.0000 </r>
       <r>   -4.2216    1.0000 </r>
       <r>   -4.0957    1.0000 </r>
       <r>   -4.0672    1.0000 </r>
       <r>   -4.0033    1.0000 </r>
       <r>   -3.9499    1.0000 </r>
       <r>   -3.8654    1.0000 </r>
       <r>   -3.8098    1.0000 </r>
       <r>   -3.7454    1.0000 </r>
       <r>   -3.6173    1.0000 </r>
       <r>   -3.5887    1.0000 </r>
       <r>   -3.5427    1.0000 </r>
       <r>   -3.5250    1.0000 </r>
       <r>   -3.4280    1.0000 </r>
       <r>   -3.3436    1.0000 </r>
       <r>   -3.2305    1.0000 </r>
       <r>   -3.0916    1.0000 </r>
       <r>   -2.9235    1.0000 </r>
       <r>   -2.7473    1.0000 </r>
       <r>   -2.6902    1.0000 </r>
       <r>   -2.6023    1.0000 </r>
       <r>   -2.4563    1.0000 </r>
       <r>   -2.4115    1.0000 </r>
       <r>   -2.0285    1.0000 </r>
       <r>   -1.9553    1.0000 </r>
       <r>   -1.9267    1.0000 </r>
       <r>   -1.8534    1.0000 </r>
       <r>   -1.8188    1.0000 </r>
       <r>   -1.7625    1.0000 </r>
       <r>   -1.7572    1.0000 </r>
       <r>   -1.6766    1.0000 </r>
       <r>   -1.5792    1.0000 </r>
       <r>   -1.5551    1.0000 </r>
       <r>   -1.5050    1.0000 </r>
       <r>   -1.4218    1.0000 </r>
       <r>   -1.2924    1.0003 </r>
       <r>   -1.2047    1.0023 </r>
       <r>   -1.1363    1.0082 </r>
       <r>   -1.0641    1.0216 </r>
       <r>   -1.0309    1.0291 </r>
       <r>   -0.9762    1.0353 </r>
       <r>   -0.9454    1.0287 </r>
       <r>   -0.8587    0.9225 </r>
       <r>   -0.8016    0.7559 </r>
       <r>   -0.7376    0.4998 </r>
       <r>   -0.7307    0.4709 </r>
       <r>   -0.6805    0.2688 </r>
       <r>   -0.6606    0.1995 </r>
       <r>   -0.6037    0.0512 </r>
       <r>   -0.5264   -0.0300 </r>
       <r>   -0.4424   -0.0287 </r>
       <r>   -0.3394   -0.0082 </r>
       <r>   -0.2744   -0.0025 </r>
       <r>   -0.1142   -0.0000 </r>
       <r>    0.2381   -0.0000 </r>
       <r>    0.3251   -0.0000 </r>
       <r>    0.5713   -0.0000 </r>
       <r>    0.8883   -0.0000 </r>
       <r>    1.0945   -0.0000 </r>
       <r>    1.3355   -0.0000 </r>
       <r>    1.6352   -0.0000 </r>
       <r>    2.1803   -0.0000 </r>
       <r>    2.5081   -0.0000 </r>
       <r>    2.7769   -0.0000 </r>
       <r>    3.0607   -0.0000 </r>
      </set>
      <set comment="kpoint 6">
       <r>   -9.4541    1.0000 </r>
       <r>   -8.2152    1.0000 </r>
       <r>   -7.4976    1.0000 </r>
       <r>   -7.1717    1.0000 </r>
       <r>   -7.0816    1.0000 </r>
       <r>   -7.0570    1.0000 </r>
       <r>   -7.0325    1.0000 </r>
       <r>   -6.8943    1.0000 </r>
       <r>   -6.8509    1.0000 </r>
       <r>   -6.7570    1.0000 </r>
       <r>   -6.5911    1.0000 </r>
       <r>   -6.5048    1.0000 </r>
       <r>   -6.4477    1.0000 </r>
       <r>   -6.3948    1.0000 </r>
       <r>   -6.2027    1.0000 </r>
       <r>   -6.1549    1.0000 </r>
       <r>   -6.0215    1.0000 </r>
       <r>   -5.9203    1.0000 </r>
       <r>   -5.8394    1.0000 </r>
       <r>   -5.7246    1.0000 </r>
       <r>   -5.4390    1.0000 </r>
       <r>   -5.4173    1.0000 </r>
       <r>   -5.3299    1.0000 </r>
       <r>   -5.0028    1.0000 </r>
       <r>   -4.9528    1.0000 </r>
       <r>   -4.8604    1.0000 </r>
       <r>   -4.8268    1.0000 </r>
       <r>   -4.7234    1.0000 </r>
       <r>   -4.6198    1.0000 </r>
       <r>   -4.4946    1.0000 </r>
       <r>   -4.4077    1.0000 </r>
       <r>   -4.2886    1.0000 </r>
       <r>   -4.1574    1.0000 </r>
       <r>   -4.1135    1.0000 </r>
       <r>   -4.0628    1.0000 </r>
       <r>   -4.0423    1.0000 </r>
       <r>   -3.9846    1.0000 </r>
       <r>   -3.9525    1.0000 </r>
       <r>   -3.8975    1.0000 </r>
       <r>   -3.8537    1.0000 </r>
       <r>   -3.7510    1.0000 </r>
       <r>   -3.7377    1.0000 </r>
       <r>   -3.6855    1.0000 </r>
       <r>   -3.6661    1.0000 </r>
       <r>   -3.5649    1.0000 </r>
       <r>   -3.4845    1.0000 </r>
       <r>   -3.2924    1.0000 </r>
       <r>   -3.2631    1.0000 </r>
       <r>   -3.1170    1.0000 </r>
       <r>   -2.8838    1.0000 </r>
       <r>   -2.8335    1.0000 </r>
       <r>   -2.7334    1.0000 </r>
       <r>   -2.6651    1.0000 </r>
       <r>   -2.6525    1.0000 </r>
       <r>   -2.5784    1.0000 </r>
       <r>   -2.5437    1.0000 </r>
       <r>   -2.4939    1.0000 </r>
       <r>   -2.4039    1.0000 </r>
       <r>   -2.3666    1.0000 </r>
       <r>   -2.2669    1.0000 </r>
       <r>   -2.2170    1.0000 </r>
       <r>   -2.0562    1.0000 </r>
       <r>   -2.0120    1.0000 </r>
       <r>   -1.9474    1.0000 </r>
       <r>   -1.8765    1.0000 </r>
       <r>   -1.7860    1.0000 </r>
       <r>   -1.6540    1.0000 </r>
       <r>   -1.5624    1.0000 </r>
       <r>   -1.4861    1.0000 </r>
       <r>   -1.4615    1.0000 </r>
       <r>   -1.3977    1.0000 </r>
       <r>   -1.3424    1.0001 </r>
       <r>   -1.2596    1.0007 </r>
       <r>   -1.2047    1.0023 </r>
       <r>   -1.1410    1.0076 </r>
       <r>   -1.0773    1.0186 </r>
       <r>   -1.0190    1.0315 </r>
       <r>   -0.9309    1.0213 </r>
       <r>   -0.8490    0.8997 </r>
       <r>   -0.8126    0.7938 </r>
       <r>   -0.7809    0.6786 </r>
       <r>   -0.6428    0.1444 </r>
       <r>   -0.5719    0.0030 </r>
       <r>   -0.5038   -0.0349 </r>
       <r>   -0.4054   -0.0203 </r>
       <r>   -0.0276   -0.0000 </r>
       <r>    0.3606   -0.0000 </r>
       <r>    0.5781   -0.0000 </r>
       <r>    1.0400   -0.0000 </r>
       <r>    1.4193   -0.0000 </r>
       <r>    1.7535   -0.0000 </r>
       <r>    1.9953   -0.0000 </r>
       <r>    2.3598   -0.0000 </r>
       <r>    2.4576   -0.0000 </r>
       <r>    3.2236   -0.0000 </r>
       <r>    3.6133   -0.0000 </r>
      </set>
      <set comment="kpoint 7">
       <r>   -9.4542    1.0000 </r>
       <r>   -8.2163    1.0000 </r>
       <r>   -7.4907    1.0000 </r>
       <r>   -7.1664    1.0000 </r>
       <r>   -7.0830    1.0000 </r>
       <r>   -7.0598    1.0000 </r>
       <r>   -7.0389    1.0000 </r>
       <r>   -6.9049    1.0000 </r>
       <r>   -6.8651    1.0000 </r>
       <r>   -6.7237    1.0000 </r>
       <r>   -6.5788    1.0000 </r>
       <r>   -6.5090    1.0000 </r>
       <r>   -6.4560    1.0000 </r>
       <r>   -6.3994    1.0000 </r>
       <r>   -6.2001    1.0000 </r>
       <r>   -6.1514    1.0000 </r>
       <r>   -5.9923    1.0000 </r>
       <r>   -5.9524    1.0000 </r>
       <r>   -5.8118    1.0000 </r>
       <r>   -5.7436    1.0000 </r>
       <r>   -5.4570    1.0000 </r>
       <r>   -5.3930    1.0000 </r>
       <r>   -5.3662    1.0000 </r>
       <r>   -5.0277    1.0000 </r>
       <r>   -4.9452    1.0000 </r>
       <r>   -4.8868    1.0000 </r>
       <r>   -4.8532    1.0000 </r>
       <r>   -4.7393    1.0000 </r>
       <r>   -4.6087    1.0000 </r>
       <r>   -4.4710    1.0000 </r>
       <r>   -4.3836    1.0000 </r>
       <r>   -4.2441    1.0000 </r>
       <r>   -4.1590    1.0000 </r>
       <r>   -4.1130    1.0000 </r>
       <r>   -4.0969    1.0000 </r>
       <r>   -4.0362    1.0000 </r>
       <r>   -3.9978    1.0000 </r>
       <r>   -3.9206    1.0000 </r>
       <r>   -3.8777    1.0000 </r>
       <r>   -3.8472    1.0000 </r>
       <r>   -3.7639    1.0000 </r>
       <r>   -3.7280    1.0000 </r>
       <r>   -3.7124    1.0000 </r>
       <r>   -3.6680    1.0000 </r>
       <r>   -3.5996    1.0000 </r>
       <r>   -3.4260    1.0000 </r>
       <r>   -3.2794    1.0000 </r>
       <r>   -3.1907    1.0000 </r>
       <r>   -3.1177    1.0000 </r>
       <r>   -2.9140    1.0000 </r>
       <r>   -2.8476    1.0000 </r>
       <r>   -2.7872    1.0000 </r>
       <r>   -2.6877    1.0000 </r>
       <r>   -2.6342    1.0000 </r>
       <r>   -2.5629    1.0000 </r>
       <r>   -2.5065    1.0000 </r>
       <r>   -2.4829    1.0000 </r>
       <r>   -2.4029    1.0000 </r>
       <r>   -2.3434    1.0000 </r>
       <r>   -2.2637    1.0000 </r>
       <r>   -2.2511    1.0000 </r>
       <r>   -2.0639    1.0000 </r>
       <r>   -2.0052    1.0000 </r>
       <r>   -1.9230    1.0000 </r>
       <r>   -1.8738    1.0000 </r>
       <r>   -1.7710    1.0000 </r>
       <r>   -1.7101    1.0000 </r>
       <r>   -1.6089    1.0000 </r>
       <r>   -1.5492    1.0000 </r>
       <r>   -1.4694    1.0000 </r>
       <r>   -1.4057    1.0000 </r>
       <r>   -1.3456    1.0001 </r>
       <r>   -1.2365    1.0012 </r>
       <r>   -1.2215    1.0016 </r>
       <r>   -1.0956    1.0148 </r>
       <r>   -1.0744    1.0192 </r>
       <r>   -1.0262    1.0301 </r>
       <r>   -0.8983    0.9909 </r>
       <r>   -0.8647    0.9352 </r>
       <r>   -0.8200    0.8180 </r>
       <r>   -0.6954    0.3259 </r>
       <r>   -0.6644    0.2120 </r>
       <r>   -0.6091    0.0617 </r>
       <r>   -0.4997   -0.0353 </r>
       <r>   -0.4258   -0.0250 </r>
       <r>   -0.0292   -0.0000 </r>
       <r>    0.3635   -0.0000 </r>
       <r>    0.5902   -0.0000 </r>
       <r>    1.0423   -0.0000 </r>
       <r>    1.4680   -0.0000 </r>
       <r>    1.7431   -0.0000 </r>
       <r>    1.9936   -0.0000 </r>
       <r>    2.3764   -0.0000 </r>
       <r>    2.4516   -0.0000 </r>
       <r>    3.2196   -0.0000 </r>
       <r>    3.5666   -0.0000 </r>
      </set>
      <set comment="kpoint 8">
       <r>   -9.4541    1.0000 </r>
       <r>   -8.2161    1.0000 </r>
       <r>   -7.4911    1.0000 </r>
       <r>   -7.1609    1.0000 </r>
       <r>   -7.1065    1.0000 </r>
       <r>   -7.0530    1.0000 </r>
       <r>   -7.0297    1.0000 </r>
       <r>   -6.9003    1.0000 </r>
       <r>   -6.8657    1.0000 </r>
       <r>   -6.7187    1.0000 </r>
       <r>   -6.5946    1.0000 </r>
       <r>   -6.5118    1.0000 </r>
       <r>   -6.4381    1.0000 </r>
       <r>   -6.4122    1.0000 </r>
       <r>   -6.1924    1.0000 </r>
       <r>   -6.1501    1.0000 </r>
       <r>   -5.9978    1.0000 </r>
       <r>   -5.9495    1.0000 </r>
       <r>   -5.8375    1.0000 </r>
       <r>   -5.7238    1.0000 </r>
       <r>   -5.4480    1.0000 </r>
       <r>   -5.4044    1.0000 </r>
       <r>   -5.3585    1.0000 </r>
       <r>   -5.0045    1.0000 </r>
       <r>   -4.9391    1.0000 </r>
       <r>   -4.9126    1.0000 </r>
       <r>   -4.8239    1.0000 </r>
       <r>   -4.7415    1.0000 </r>
       <r>   -4.6108    1.0000 </r>
       <r>   -4.4840    1.0000 </r>
       <r>   -4.3821    1.0000 </r>
       <r>   -4.2641    1.0000 </r>
       <r>   -4.1467    1.0000 </r>
       <r>   -4.1170    1.0000 </r>
       <r>   -4.0622    1.0000 </r>
       <r>   -4.0423    1.0000 </r>
       <r>   -3.9821    1.0000 </r>
       <r>   -3.9495    1.0000 </r>
       <r>   -3.8842    1.0000 </r>
       <r>   -3.8502    1.0000 </r>
       <r>   -3.7974    1.0000 </r>
       <r>   -3.7345    1.0000 </r>
       <r>   -3.7029    1.0000 </r>
       <r>   -3.6490    1.0000 </r>
       <r>   -3.5915    1.0000 </r>
       <r>   -3.4306    1.0000 </r>
       <r>   -3.2845    1.0000 </r>
       <r>   -3.2302    1.0000 </r>
       <r>   -3.1192    1.0000 </r>
       <r>   -2.9077    1.0000 </r>
       <r>   -2.8493    1.0000 </r>
       <r>   -2.7607    1.0000 </r>
       <r>   -2.6769    1.0000 </r>
       <r>   -2.6405    1.0000 </r>
       <r>   -2.5699    1.0000 </r>
       <r>   -2.5152    1.0000 </r>
       <r>   -2.4748    1.0000 </r>
       <r>   -2.3860    1.0000 </r>
       <r>   -2.3553    1.0000 </r>
       <r>   -2.2634    1.0000 </r>
       <r>   -2.2509    1.0000 </r>
       <r>   -2.0609    1.0000 </r>
       <r>   -2.0100    1.0000 </r>
       <r>   -1.9413    1.0000 </r>
       <r>   -1.8555    1.0000 </r>
       <r>   -1.7927    1.0000 </r>
       <r>   -1.6758    1.0000 </r>
       <r>   -1.5914    1.0000 </r>
       <r>   -1.5325    1.0000 </r>
       <r>   -1.4413    1.0000 </r>
       <r>   -1.4196    1.0000 </r>
       <r>   -1.3408    1.0001 </r>
       <r>   -1.2818    1.0004 </r>
       <r>   -1.2051    1.0023 </r>
       <r>   -1.1550    1.0060 </r>
       <r>   -1.0500    1.0248 </r>
       <r>   -1.0167    1.0319 </r>
       <r>   -0.8976    0.9901 </r>
       <r>   -0.8703    0.9464 </r>
       <r>   -0.8110    0.7886 </r>
       <r>   -0.6975    0.3338 </r>
       <r>   -0.6473    0.1575 </r>
       <r>   -0.6163    0.0771 </r>
       <r>   -0.5060   -0.0347 </r>
       <r>   -0.4285   -0.0256 </r>
       <r>   -0.0289   -0.0000 </r>
       <r>    0.3624   -0.0000 </r>
       <r>    0.5879   -0.0000 </r>
       <r>    1.0488   -0.0000 </r>
       <r>    1.4655   -0.0000 </r>
       <r>    1.7480   -0.0000 </r>
       <r>    1.9685   -0.0000 </r>
       <r>    2.3697   -0.0000 </r>
       <r>    2.4698   -0.0000 </r>
       <r>    3.2198   -0.0000 </r>
       <r>    3.5763   -0.0000 </r>
      </set>
      <set comment="kpoint 9">
       <r>   -8.8195    1.0000 </r>
       <r>   -7.8412    1.0000 </r>
       <r>   -7.6665    1.0000 </r>
       <r>   -7.1130    1.0000 </r>
       <r>   -6.8036    1.0000 </r>
       <r>   -6.6974    1.0000 </r>
       <r>   -6.6151    1.0000 </r>
       <r>   -6.5590    1.0000 </r>
       <r>   -6.4907    1.0000 </r>
       <r>   -6.4451    1.0000 </r>
       <r>   -6.4072    1.0000 </r>
       <r>   -6.2515    1.0000 </r>
       <r>   -6.1440    1.0000 </r>
       <r>   -6.0665    1.0000 </r>
       <r>   -6.0099    1.0000 </r>
       <r>   -5.9455    1.0000 </r>
       <r>   -5.8379    1.0000 </r>
       <r>   -5.6199    1.0000 </r>
       <r>   -5.4709    1.0000 </r>
       <r>   -5.3901    1.0000 </r>
       <r>   -5.3468    1.0000 </r>
       <r>   -5.2381    1.0000 </r>
       <r>   -5.1785    1.0000 </r>
       <r>   -5.1219    1.0000 </r>
       <r>   -5.0642    1.0000 </r>
       <r>   -4.9808    1.0000 </r>
       <r>   -4.9323    1.0000 </r>
       <r>   -4.8215    1.0000 </r>
       <r>   -4.6413    1.0000 </r>
       <r>   -4.5867    1.0000 </r>
       <r>   -4.5596    1.0000 </r>
       <r>   -4.5411    1.0000 </r>
       <r>   -4.4019    1.0000 </r>
       <r>   -4.3099    1.0000 </r>
       <r>   -4.2791    1.0000 </r>
       <r>   -4.2060    1.0000 </r>
       <r>   -4.0758    1.0000 </r>
       <r>   -4.0224    1.0000 </r>
       <r>   -3.9602    1.0000 </r>
       <r>   -3.8462    1.0000 </r>
       <r>   -3.8050    1.0000 </r>
       <r>   -3.7166    1.0000 </r>
       <r>   -3.6604    1.0000 </r>
       <r>   -3.6201    1.0000 </r>
       <r>   -3.5836    1.0000 </r>
       <r>   -3.5110    1.0000 </r>
       <r>   -3.4737    1.0000 </r>
       <r>   -3.4100    1.0000 </r>
       <r>   -3.3388    1.0000 </r>
       <r>   -3.2971    1.0000 </r>
       <r>   -3.2829    1.0000 </r>
       <r>   -3.2016    1.0000 </r>
       <r>   -3.1023    1.0000 </r>
       <r>   -3.0526    1.0000 </r>
       <r>   -2.9684    1.0000 </r>
       <r>   -2.8815    1.0000 </r>
       <r>   -2.8405    1.0000 </r>
       <r>   -2.7467    1.0000 </r>
       <r>   -2.6739    1.0000 </r>
       <r>   -2.6315    1.0000 </r>
       <r>   -2.4578    1.0000 </r>
       <r>   -2.3658    1.0000 </r>
       <r>   -2.2847    1.0000 </r>
       <r>   -2.2369    1.0000 </r>
       <r>   -2.1470    1.0000 </r>
       <r>   -2.0713    1.0000 </r>
       <r>   -2.0284    1.0000 </r>
       <r>   -1.9724    1.0000 </r>
       <r>   -1.8939    1.0000 </r>
       <r>   -1.8044    1.0000 </r>
       <r>   -1.7401    1.0000 </r>
       <r>   -1.7227    1.0000 </r>
       <r>   -1.5220    1.0000 </r>
       <r>   -1.4256    1.0000 </r>
       <r>   -1.3415    1.0001 </r>
       <r>   -1.2414    1.0011 </r>
       <r>   -1.1923    1.0030 </r>
       <r>   -1.0982    1.0143 </r>
       <r>   -1.0080    1.0334 </r>
       <r>   -0.8505    0.9035 </r>
       <r>   -0.8204    0.8192 </r>
       <r>   -0.7416    0.5171 </r>
       <r>   -0.6093    0.0623 </r>
       <r>   -0.5169   -0.0328 </r>
       <r>   -0.4173   -0.0230 </r>
       <r>   -0.2595   -0.0019 </r>
       <r>    0.5765   -0.0000 </r>
       <r>    0.7301   -0.0000 </r>
       <r>    1.1975   -0.0000 </r>
       <r>    1.5815   -0.0000 </r>
       <r>    1.8367   -0.0000 </r>
       <r>    2.1448   -0.0000 </r>
       <r>    2.5430   -0.0000 </r>
       <r>    2.6340   -0.0000 </r>
       <r>    3.4949   -0.0000 </r>
       <r>    3.8416   -0.0000 </r>
      </set>
      <set comment="kpoint 10">
       <r>   -8.8198    1.0000 </r>
       <r>   -7.8505    1.0000 </r>
       <r>   -7.6542    1.0000 </r>
       <r>   -7.1080    1.0000 </r>
       <r>   -6.8047    1.0000 </r>
       <r>   -6.6757    1.0000 </r>
       <r>   -6.6446    1.0000 </r>
       <r>   -6.5459    1.0000 </r>
       <r>   -6.4969    1.0000 </r>
       <r>   -6.4597    1.0000 </r>
       <r>   -6.3867    1.0000 </r>
       <r>   -6.2477    1.0000 </r>
       <r>   -6.1438    1.0000 </r>
       <r>   -6.0521    1.0000 </r>
       <r>   -6.0048    1.0000 </r>
       <r>   -5.9534    1.0000 </r>
       <r>   -5.7829    1.0000 </r>
       <r>   -5.6774    1.0000 </r>
       <r>   -5.4686    1.0000 </r>
       <r>   -5.4134    1.0000 </r>
       <r>   -5.3381    1.0000 </r>
       <r>   -5.2594    1.0000 </r>
       <r>   -5.2181    1.0000 </r>
       <r>   -5.1300    1.0000 </r>
       <r>   -5.0799    1.0000 </r>
       <r>   -5.0212    1.0000 </r>
       <r>   -4.9537    1.0000 </r>
       <r>   -4.8560    1.0000 </r>
       <r>   -4.6622    1.0000 </r>
       <r>   -4.5836    1.0000 </r>
       <r>   -4.5617    1.0000 </r>
       <r>   -4.4567    1.0000 </r>
       <r>   -4.4003    1.0000 </r>
       <r>   -4.3002    1.0000 </r>
       <r>   -4.2377    1.0000 </r>
       <r>   -4.1633    1.0000 </r>
       <r>   -4.0455    1.0000 </r>
       <r>   -3.9796    1.0000 </r>
       <r>   -3.9258    1.0000 </r>
       <r>   -3.9019    1.0000 </r>
       <r>   -3.7547    1.0000 </r>
       <r>   -3.7007    1.0000 </r>
       <r>   -3.6876    1.0000 </r>
       <r>   -3.5991    1.0000 </r>
       <r>   -3.5858    1.0000 </r>
       <r>   -3.5465    1.0000 </r>
       <r>   -3.4614    1.0000 </r>
       <r>   -3.3994    1.0000 </r>
       <r>   -3.3375    1.0000 </r>
       <r>   -3.3196    1.0000 </r>
       <r>   -3.2653    1.0000 </r>
       <r>   -3.2117    1.0000 </r>
       <r>   -3.1336    1.0000 </r>
       <r>   -3.0706    1.0000 </r>
       <r>   -2.9587    1.0000 </r>
       <r>   -2.9031    1.0000 </r>
       <r>   -2.8220    1.0000 </r>
       <r>   -2.7341    1.0000 </r>
       <r>   -2.6783    1.0000 </r>
       <r>   -2.6185    1.0000 </r>
       <r>   -2.3910    1.0000 </r>
       <r>   -2.3554    1.0000 </r>
       <r>   -2.3044    1.0000 </r>
       <r>   -2.2456    1.0000 </r>
       <r>   -2.2069    1.0000 </r>
       <r>   -2.1045    1.0000 </r>
       <r>   -2.0427    1.0000 </r>
       <r>   -1.9713    1.0000 </r>
       <r>   -1.8730    1.0000 </r>
       <r>   -1.8346    1.0000 </r>
       <r>   -1.7607    1.0000 </r>
       <r>   -1.7110    1.0000 </r>
       <r>   -1.5418    1.0000 </r>
       <r>   -1.4756    1.0000 </r>
       <r>   -1.3143    1.0002 </r>
       <r>   -1.2446    1.0010 </r>
       <r>   -1.1472    1.0068 </r>
       <r>   -1.1093    1.0123 </r>
       <r>   -0.9244    1.0169 </r>
       <r>   -0.8890    0.9782 </r>
       <r>   -0.8121    0.7923 </r>
       <r>   -0.6835    0.2799 </r>
       <r>   -0.6744    0.2468 </r>
       <r>   -0.5623   -0.0071 </r>
       <r>   -0.4186   -0.0233 </r>
       <r>   -0.2692   -0.0023 </r>
       <r>    0.6120   -0.0000 </r>
       <r>    0.7280   -0.0000 </r>
       <r>    1.2019   -0.0000 </r>
       <r>    1.6526   -0.0000 </r>
       <r>    1.8283   -0.0000 </r>
       <r>    2.1096   -0.0000 </r>
       <r>    2.5495   -0.0000 </r>
       <r>    2.6446   -0.0000 </r>
       <r>    3.4995   -0.0000 </r>
       <r>    3.7855   -0.0000 </r>
      </set>
      <set comment="kpoint 11">
       <r>   -8.8197    1.0000 </r>
       <r>   -7.8507    1.0000 </r>
       <r>   -7.6542    1.0000 </r>
       <r>   -7.1064    1.0000 </r>
       <r>   -6.7735    1.0000 </r>
       <r>   -6.7494    1.0000 </r>
       <r>   -6.6177    1.0000 </r>
       <r>   -6.5291    1.0000 </r>
       <r>   -6.4924    1.0000 </r>
       <r>   -6.4588    1.0000 </r>
       <r>   -6.3881    1.0000 </r>
       <r>   -6.2644    1.0000 </r>
       <r>   -6.1509    1.0000 </r>
       <r>   -6.0301    1.0000 </r>
       <r>   -6.0064    1.0000 </r>
       <r>   -5.9481    1.0000 </r>
       <r>   -5.8141    1.0000 </r>
       <r>   -5.6707    1.0000 </r>
       <r>   -5.4612    1.0000 </r>
       <r>   -5.3786    1.0000 </r>
       <r>   -5.3560    1.0000 </r>
       <r>   -5.2636    1.0000 </r>
       <r>   -5.2146    1.0000 </r>
       <r>   -5.1332    1.0000 </r>
       <r>   -5.0816    1.0000 </r>
       <r>   -5.0160    1.0000 </r>
       <r>   -4.9515    1.0000 </r>
       <r>   -4.8597    1.0000 </r>
       <r>   -4.6132    1.0000 </r>
       <r>   -4.5789    1.0000 </r>
       <r>   -4.5724    1.0000 </r>
       <r>   -4.4949    1.0000 </r>
       <r>   -4.3879    1.0000 </r>
       <r>   -4.2982    1.0000 </r>
       <r>   -4.2265    1.0000 </r>
       <r>   -4.1846    1.0000 </r>
       <r>   -4.0499    1.0000 </r>
       <r>   -3.9721    1.0000 </r>
       <r>   -3.9417    1.0000 </r>
       <r>   -3.9128    1.0000 </r>
       <r>   -3.7561    1.0000 </r>
       <r>   -3.7142    1.0000 </r>
       <r>   -3.6746    1.0000 </r>
       <r>   -3.6137    1.0000 </r>
       <r>   -3.5945    1.0000 </r>
       <r>   -3.5302    1.0000 </r>
       <r>   -3.4713    1.0000 </r>
       <r>   -3.4044    1.0000 </r>
       <r>   -3.3398    1.0000 </r>
       <r>   -3.3038    1.0000 </r>
       <r>   -3.2807    1.0000 </r>
       <r>   -3.2064    1.0000 </r>
       <r>   -3.1283    1.0000 </r>
       <r>   -3.0920    1.0000 </r>
       <r>   -2.9390    1.0000 </r>
       <r>   -2.8894    1.0000 </r>
       <r>   -2.8241    1.0000 </r>
       <r>   -2.7404    1.0000 </r>
       <r>   -2.6636    1.0000 </r>
       <r>   -2.6032    1.0000 </r>
       <r>   -2.4249    1.0000 </r>
       <r>   -2.3412    1.0000 </r>
       <r>   -2.2853    1.0000 </r>
       <r>   -2.2288    1.0000 </r>
       <r>   -2.1863    1.0000 </r>
       <r>   -2.1611    1.0000 </r>
       <r>   -2.0167    1.0000 </r>
       <r>   -1.9627    1.0000 </r>
       <r>   -1.8868    1.0000 </r>
       <r>   -1.8297    1.0000 </r>
       <r>   -1.7763    1.0000 </r>
       <r>   -1.7042    1.0000 </r>
       <r>   -1.5426    1.0000 </r>
       <r>   -1.4599    1.0000 </r>
       <r>   -1.3573    1.0001 </r>
       <r>   -1.2358    1.0012 </r>
       <r>   -1.1495    1.0066 </r>
       <r>   -1.1032    1.0134 </r>
       <r>   -0.9472    1.0294 </r>
       <r>   -0.8901    0.9798 </r>
       <r>   -0.7775    0.6650 </r>
       <r>   -0.6893    0.3022 </r>
       <r>   -0.6411    0.1398 </r>
       <r>   -0.5694    0.0002 </r>
       <r>   -0.4415   -0.0285 </r>
       <r>   -0.2697   -0.0023 </r>
       <r>    0.6168   -0.0000 </r>
       <r>    0.7238   -0.0000 </r>
       <r>    1.2109   -0.0000 </r>
       <r>    1.6277   -0.0000 </r>
       <r>    1.8300   -0.0000 </r>
       <r>    2.1343   -0.0000 </r>
       <r>    2.5502   -0.0000 </r>
       <r>    2.6262   -0.0000 </r>
       <r>    3.5076   -0.0000 </r>
       <r>    3.7837   -0.0000 </r>
      </set>
      <set comment="kpoint 12">
       <r>   -8.4754    1.0000 </r>
       <r>   -8.1264    1.0000 </r>
       <r>   -7.4232    1.0000 </r>
       <r>   -7.2159    1.0000 </r>
       <r>   -6.7255    1.0000 </r>
       <r>   -6.6176    1.0000 </r>
       <r>   -6.5147    1.0000 </r>
       <r>   -6.4724    1.0000 </r>
       <r>   -6.3722    1.0000 </r>
       <r>   -6.3028    1.0000 </r>
       <r>   -6.2669    1.0000 </r>
       <r>   -6.1833    1.0000 </r>
       <r>   -6.1219    1.0000 </r>
       <r>   -6.0212    1.0000 </r>
       <r>   -5.8994    1.0000 </r>
       <r>   -5.8136    1.0000 </r>
       <r>   -5.7126    1.0000 </r>
       <r>   -5.6125    1.0000 </r>
       <r>   -5.4875    1.0000 </r>
       <r>   -5.4408    1.0000 </r>
       <r>   -5.2830    1.0000 </r>
       <r>   -5.2235    1.0000 </r>
       <r>   -5.0980    1.0000 </r>
       <r>   -5.0748    1.0000 </r>
       <r>   -5.0210    1.0000 </r>
       <r>   -4.9736    1.0000 </r>
       <r>   -4.9277    1.0000 </r>
       <r>   -4.8430    1.0000 </r>
       <r>   -4.8206    1.0000 </r>
       <r>   -4.6474    1.0000 </r>
       <r>   -4.5760    1.0000 </r>
       <r>   -4.5338    1.0000 </r>
       <r>   -4.4606    1.0000 </r>
       <r>   -4.3770    1.0000 </r>
       <r>   -4.3372    1.0000 </r>
       <r>   -4.1877    1.0000 </r>
       <r>   -4.0717    1.0000 </r>
       <r>   -4.0163    1.0000 </r>
       <r>   -3.9701    1.0000 </r>
       <r>   -3.9457    1.0000 </r>
       <r>   -3.8145    1.0000 </r>
       <r>   -3.7737    1.0000 </r>
       <r>   -3.7311    1.0000 </r>
       <r>   -3.6858    1.0000 </r>
       <r>   -3.6028    1.0000 </r>
       <r>   -3.5693    1.0000 </r>
       <r>   -3.5606    1.0000 </r>
       <r>   -3.5332    1.0000 </r>
       <r>   -3.5000    1.0000 </r>
       <r>   -3.4466    1.0000 </r>
       <r>   -3.3419    1.0000 </r>
       <r>   -3.3069    1.0000 </r>
       <r>   -3.2515    1.0000 </r>
[...]
       <r>   -4.2417    1.0000 </r>
       <r>   -4.1905    1.0000 </r>
       <r>   -4.1290    1.0000 </r>
       <r>   -4.0751    1.0000 </r>
       <r>   -4.0171    1.0000 </r>
       <r>   -3.9208    1.0000 </r>
       <r>   -3.8737    1.0000 </r>
       <r>   -3.8006    1.0000 </r>
       <r>   -3.7050    1.0000 </r>
       <r>   -3.6723    1.0000 </r>
       <r>   -3.6185    1.0000 </r>
       <r>   -3.5654    1.0000 </r>
       <r>   -3.5492    1.0000 </r>
       <r>   -3.5422    1.0000 </r>
       <r>   -3.4997    1.0000 </r>
       <r>   -3.3500    1.0000 </r>
       <r>   -3.2589    1.0000 </r>
       <r>   -3.2472    1.0000 </r>
       <r>   -3.1300    1.0000 </r>
       <r>   -2.9749    1.0000 </r>
       <r>   -2.8720    1.0000 </r>
       <r>   -2.8110    1.0000 </r>
       <r>   -2.7706    1.0000 </r>
       <r>   -2.6648    1.0000 </r>
       <r>   -2.5488    1.0000 </r>
       <r>   -2.5211    1.0000 </r>
       <r>   -2.4648    1.0000 </r>
       <r>   -2.2864    1.0000 </r>
       <r>   -2.2417    1.0000 </r>
       <r>   -2.1901    1.0000 </r>
       <r>   -2.0984    1.0000 </r>
       <r>   -2.0614    1.0000 </r>
       <r>   -1.9890    1.0000 </r>
       <r>   -1.9046    1.0000 </r>
       <r>   -1.8218    1.0000 </r>
       <r>   -1.7533    1.0000 </r>
       <r>   -1.7311    1.0000 </r>
       <r>   -1.6950    1.0000 </r>
       <r>   -1.5061    1.0000 </r>
       <r>   -1.3985    1.0000 </r>
       <r>   -1.2962    1.0003 </r>
       <r>   -1.2823    1.0004 </r>
       <r>   -1.1314    1.0088 </r>
       <r>   -1.0475    1.0254 </r>
       <r>   -0.8964    0.9884 </r>
       <r>   -0.8913    0.9815 </r>
       <r>   -0.7220    0.4340 </r>
       <r>   -0.6433    0.1460 </r>
       <r>   -0.5233   -0.0311 </r>
       <r>   -0.5203   -0.0319 </r>
       <r>   -0.3234   -0.0063 </r>
       <r>    0.2369   -0.0000 </r>
       <r>    0.5609   -0.0000 </r>
       <r>    0.8177   -0.0000 </r>
       <r>    1.5630   -0.0000 </r>
       <r>    1.5939   -0.0000 </r>
       <r>    2.3818   -0.0000 </r>
       <r>    2.7351   -0.0000 </r>
       <r>    3.2719   -0.0000 </r>
       <r>    3.5637   -0.0000 </r>
       <r>    4.0459   -0.0000 </r>
      </set>
     </set>
    </set>
   </array>
  </eigenvalues>
  <separator name="orbital magnetization" >
   <v name="MAGDIPOLOUT">      0.00000000      0.00000000      0.00000000</v>
  </separator>
  <dos>
   <i name="efermi">     -0.73760867 </i>
   <total>
    <array>
     <dimension dim="1">gridpoints</dimension>
     <dimension dim="2">spin</dimension>
     <field>energy</field>
     <field>total</field>
     <field>integrated</field>
     <set>
      <set comment="spin 1">
       <r>   -12.1084     0.0000     0.0000 </r>
       <r>   -12.0465     0.0000     0.0000 </r>
       <r>   -11.9846     0.0000     0.0000 </r>
       <r>   -11.9228     0.0000     0.0000 </r>
       <r>   -11.8609     0.0000     0.0000 </r>
       <r>   -11.7990     0.0000     0.0000 </r>
       <r>   -11.7372    -0.0000    -0.0000 </r>
       <r>   -11.6753    -0.0000    -0.0000 </r>
       <r>   -11.6134    -0.0000    -0.0000 </r>
       <r>   -11.5516    -0.0000    -0.0000 </r>
       <r>   -11.4897    -0.0000    -0.0000 </r>
       <r>   -11.4278    -0.0000    -0.0000 </r>
       <r>   -11.3660    -0.0000    -0.0000 </r>
       <r>   -11.3041    -0.0000    -0.0000 </r>
       <r>   -11.2423    -0.0000    -0.0000 </r>
       <r>   -11.1804    -0.0000    -0.0000 </r>
       <r>   -11.1185    -0.0000    -0.0000 </r>
       <r>   -11.0567    -0.0000    -0.0000 </r>
       <r>   -10.9948    -0.0000    -0.0000 </r>
       <r>   -10.9329    -0.0000    -0.0000 </r>
       <r>   -10.8711    -0.0000    -0.0000 </r>
       <r>   -10.8092    -0.0000    -0.0000 </r>
       <r>   -10.7473    -0.0000    -0.0000 </r>
       <r>   -10.6855    -0.0002    -0.0000 </r>
       <r>   -10.6236    -0.0008    -0.0001 </r>
       <r>   -10.5617    -0.0029    -0.0002 </r>
       <r>   -10.4999    -0.0084    -0.0008 </r>
       <r>   -10.4380    -0.0184    -0.0019 </r>
       <r>   -10.3761    -0.0280    -0.0036 </r>
       <r>   -10.3143    -0.0188    -0.0048 </r>
       <r>   -10.2524     0.0387    -0.0024 </r>
       <r>   -10.1905     0.1650     0.0078 </r>
       <r>   -10.1287     0.3482     0.0293 </r>
       <r>   -10.0668     0.5481     0.0633 </r>
       <r>   -10.0049     0.7260     0.1082 </r>
       <r>    -9.9431     0.8598     0.1614 </r>
       <r>    -9.8812     0.9322     0.2190 </r>
       <r>    -9.8193     0.9280     0.2764 </r>
       <r>    -9.7575     0.8582     0.3295 </r>
       <r>    -9.6956     0.7755     0.3775 </r>
       <r>    -9.6337     0.7558     0.4243 </r>
       <r>    -9.5719     0.8430     0.4764 </r>
       <r>    -9.5100     0.9926     0.5378 </r>
       <r>    -9.4481     1.0926     0.6054 </r>
       <r>    -9.3863     1.0688     0.6716 </r>
       <r>    -9.3244     0.9545     0.7306 </r>
       <r>    -9.2625     0.8350     0.7823 </r>
       <r>    -9.2007     0.7588     0.8292 </r>
       <r>    -9.1388     0.7371     0.8748 </r>
       <r>    -9.0769     0.7999     0.9243 </r>
       <r>    -9.0151     0.9880     0.9854 </r>
       <r>    -8.9532     1.2766     1.0644 </r>
       <r>    -8.8913     1.5570     1.1607 </r>
       <r>    -8.8295     1.7333     1.2680 </r>
       <r>    -8.7676     1.8115     1.3800 </r>
       <r>    -8.7057     1.8550     1.4948 </r>
       <r>    -8.6439     1.8785     1.6110 </r>
       <r>    -8.5820     1.8462     1.7252 </r>
       <r>    -8.5201     1.7745     1.8350 </r>
       <r>    -8.4583     1.7748     1.9448 </r>
       <r>    -8.3964     1.9570     2.0659 </r>
       <r>    -8.3345     2.2947     2.2078 </r>
       <r>    -8.2727     2.6068     2.3691 </r>
       <r>    -8.2108     2.7047     2.5364 </r>
       <r>    -8.1489     2.5684     2.6953 </r>
       <r>    -8.0871     2.3476     2.8406 </r>
       <r>    -8.0252     2.1899     2.9761 </r>
       <r>    -7.9633     2.1282     3.1077 </r>
       <r>    -7.9015     2.1709     3.2420 </r>
       <r>    -7.8396     2.4325     3.3925 </r>
       <r>    -7.7777     3.0645     3.5821 </r>
       <r>    -7.7159     4.0442     3.8323 </r>
       <r>    -7.6540     5.1274     4.1495 </r>
       <r>    -7.5921     6.0836     4.5259 </r>
       <r>    -7.5303     6.9174     4.9538 </r>
       <r>    -7.4684     7.7899     5.4358 </r>
       <r>    -7.4065     8.8058     5.9806 </r>
       <r>    -7.3447     9.9720     6.5975 </r>
       <r>    -7.2828    11.2616     7.2942 </r>
       <r>    -7.2209    12.5625     8.0714 </r>
       <r>    -7.1591    13.6139     8.9136 </r>
       <r>    -7.0972    14.1322     9.7879 </r>
       <r>    -7.0353    14.0480    10.6570 </r>
       <r>    -6.9735    13.6299    11.5003 </r>
       <r>    -6.9116    13.3787    12.3280 </r>
       <r>    -6.8497    13.7332    13.1776 </r>
       <r>    -6.7879    14.7758    14.0917 </r>
       <r>    -6.7260    16.2098    15.0945 </r>
       <r>    -6.6641    17.6882    16.1889 </r>
       <r>    -6.6023    19.1486    17.3735 </r>
       <r>    -6.5404    20.7221    18.6555 </r>
       <r>    -6.4786    22.3499    20.0382 </r>
       <r>    -6.4167    23.6667    21.5024 </r>
       <r>    -6.3548    24.3002    23.0057 </r>
       <r>    -6.2930    24.1891    24.5022 </r>
       <r>    -6.2311    23.5897    25.9616 </r>
       <r>    -6.1692    22.8242    27.3737 </r>
       <r>    -6.1074    22.0358    28.7370 </r>
       <r>    -6.0455    21.1698    30.0466 </r>
       <r>    -5.9836    20.1402    31.2926 </r>
       <r>    -5.9218    18.9292    32.4637 </r>
       <r>    -5.8599    17.5529    33.5497 </r>
       <r>    -5.7980    16.0842    34.5447 </r>
       <r>    -5.7362    14.7996    35.4603 </r>
       <r>    -5.6743    14.2133    36.3396 </r>
       <r>    -5.6124    14.8160    37.2563 </r>
       <r>    -5.5506    16.6839    38.2884 </r>
       <r>    -5.4887    19.2651    39.4803 </r>
       <r>    -5.4268    21.5188    40.8116 </r>
       <r>    -5.3650    22.4365    42.1996 </r>
       <r>    -5.3031    21.7555    43.5456 </r>
       <r>    -5.2412    20.3036    44.8017 </r>
       <r>    -5.1794    19.4527    46.0051 </r>
       <r>    -5.1175    20.0036    47.2427 </r>
       <r>    -5.0556    21.5708    48.5772 </r>
       <r>    -4.9938    23.0357    50.0023 </r>
       <r>    -4.9319    23.4838    51.4552 </r>
       <r>    -4.8700    22.7489    52.8626 </r>
       <r>    -4.8082    21.3930    54.1861 </r>
       <r>    -4.7463    20.3869    55.4473 </r>
       <r>    -4.6844    20.5829    56.7207 </r>
       <r>    -4.6226    22.1141    58.0888 </r>
       <r>    -4.5607    24.2121    59.5867 </r>
       <r>    -4.4988    25.7781    61.1815 </r>
       <r>    -4.4370    26.2510    62.8056 </r>
       <r>    -4.3751    25.9508    64.4111 </r>
       <r>    -4.3132    25.6837    66.0000 </r>
       <r>    -4.2514    26.1389    67.6171 </r>
       <r>    -4.1895    27.5564    69.3219 </r>
       <r>    -4.1276    29.6424    71.1558 </r>
       <r>    -4.0658    31.6565    73.1143 </r>
       <r>    -4.0039    32.8148    75.1444 </r>
       <r>    -3.9420    32.8906    77.1792 </r>
       <r>    -3.8802    32.4318    79.1857 </r>
       <r>    -3.8183    32.2817    81.1828 </r>
       <r>    -3.7564    32.8549    83.2154 </r>
       <r>    -3.6946    33.8154    85.3075 </r>
       <r>    -3.6327    34.3275    87.4312 </r>
       <r>    -3.5708    33.6528    89.5131 </r>
       <r>    -3.5090    31.7165    91.4753 </r>
       <r>    -3.4471    29.1793    93.2805 </r>
       <r>    -3.3852    26.8412    94.9411 </r>
       <r>    -3.3234    24.9274    96.4833 </r>
       <r>    -3.2615    23.0501    97.9093 </r>
       <r>    -3.1996    20.8929    99.2018 </r>
       <r>    -3.1378    18.8364   100.3672 </r>
       <r>    -3.0759    17.8325   101.4704 </r>
       <r>    -3.0140    18.6588   102.6248 </r>
       <r>    -2.9522    21.2483   103.9393 </r>
       <r>    -2.8903    24.6204   105.4625 </r>
       <r>    -2.8284    27.4077   107.1581 </r>
       <r>    -2.7666    28.5805   108.9263 </r>
       <r>    -2.7047    27.9179   110.6534 </r>
       <r>    -2.6428    26.0085   112.2625 </r>
       <r>    -2.5810    23.8604   113.7386 </r>
       <r>    -2.5191    22.3437   115.1210 </r>
       <r>    -2.4572    21.7617   116.4673 </r>
       <r>    -2.3954    21.8400   117.8184 </r>
       <r>    -2.3335    22.1018   119.1858 </r>
       <r>    -2.2716    22.2454   120.5620 </r>
       <r>    -2.2098    22.2703   121.9398 </r>
       <r>    -2.1479    22.4226   123.3270 </r>
       <r>    -2.0860    23.0224   124.7513 </r>
       <r>    -2.0242    24.1886   126.2478 </r>
       <r>    -1.9623    25.6770   127.8363 </r>
       <r>    -1.9004    27.0312   129.5086 </r>
       <r>    -1.8386    27.8572   131.2321 </r>
       <r>    -1.7767    27.9321   132.9601 </r>
       <r>    -1.7149    27.2115   134.6436 </r>
       <r>    -1.6530    25.9105   136.2466 </r>
       <r>    -1.5911    24.4958   137.7620 </r>
       <r>    -1.5293    23.3985   139.2096 </r>
       <r>    -1.4674    22.7486   140.6170 </r>
       <r>    -1.4055    22.5217   142.0103 </r>
       <r>    -1.3437    22.8577   143.4244 </r>
       <r>    -1.2818    23.9998   144.9092 </r>
       <r>    -1.2199    25.9027   146.5117 </r>
       <r>    -1.1581    28.0812   148.2490 </r>
       <r>    -1.0962    29.9211   150.1001 </r>
       <r>    -1.0343    31.0702   152.0223 </r>
       <r>    -0.9725    31.5032   153.9713 </r>
       <r>    -0.9106    31.3148   155.9086 </r>
       <r>    -0.8487    30.5773   157.8003 </r>
       <r>    -0.7869    29.3855   159.6183 </r>
       <r>    -0.7250    27.8914   161.3438 </r>
       <r>    -0.6631    26.2137   162.9656 </r>
       <r>    -0.6013    24.3599   164.4726 </r>
       <r>    -0.5394    22.2556   165.8495 </r>
       <r>    -0.4775    19.8146   167.0753 </r>
       <r>    -0.4157    17.0467   168.1300 </r>
       <r>    -0.3538    14.2055   169.0088 </r>
       <r>    -0.2919    11.7697   169.7369 </r>
       <r>    -0.2301    10.1315   170.3637 </r>
       <r>    -0.1682     9.2671   170.9371 </r>
       <r>    -0.1063     8.7510   171.4785 </r>
       <r>    -0.0445     8.1024   171.9797 </r>
       <r>     0.0174     7.1315   172.4209 </r>
       <r>     0.0793     5.9977   172.7920 </r>
       <r>     0.1411     4.9927   173.1008 </r>
       <r>     0.2030     4.3052   173.3672 </r>
       <r>     0.2649     3.9669   173.6126 </r>
       <r>     0.3267     3.9461   173.8567 </r>
       <r>     0.3886     4.2415   174.1191 </r>
       <r>     0.4505     4.8887   174.4216 </r>
       <r>     0.5123     5.8390   174.7828 </r>
       <r>     0.5742     6.7913   175.2030 </r>
       <r>     0.6361     7.2340   175.6505 </r>
       <r>     0.6979     6.8268   176.0729 </r>
       <r>     0.7598     5.7706   176.4299 </r>
       <r>     0.8217     4.6886   176.7199 </r>
       <r>     0.8835     4.1225   176.9750 </r>
       <r>     0.9454     4.2047   177.2351 </r>
       <r>     1.0073     4.7355   177.5281 </r>
       <r>     1.0691     5.3734   177.8605 </r>
       <r>     1.1310     5.7383   178.2155 </r>
       <r>     1.1929     5.5477   178.5587 </r>
       <r>     1.2547     4.8165   178.8567 </r>
       <r>     1.3166     3.8999   179.0980 </r>
       <r>     1.3785     3.2893   179.3015 </r>
       <r>     1.4403     3.3357   179.5078 </r>
       <r>     1.5022     4.0585   179.7589 </r>
       <r>     1.5641     5.1080   180.0749 </r>
       <r>     1.6259     5.9889   180.4455 </r>
       <r>     1.6878     6.4489   180.8444 </r>
       <r>     1.7497     6.5968   181.2525 </r>
       <r>     1.8115     6.5725   181.6592 </r>
       <r>     1.8734     6.2669   182.0469 </r>
       <r>     1.9353     5.5293   182.3890 </r>
       <r>     1.9971     4.5341   182.6695 </r>
       <r>     2.0590     3.7426   182.9010 </r>
       <r>     2.1209     3.4940   183.1172 </r>
       <r>     2.1827     3.7346   183.3482 </r>
       <r>     2.2446     4.1660   183.6060 </r>
       <r>     2.3065     4.5928   183.8901 </r>
       <r>     2.3683     5.0865   184.2048 </r>
       <r>     2.4302     5.8077   184.5641 </r>
       <r>     2.4921     6.6656   184.9765 </r>
       <r>     2.5539     7.2043   185.4222 </r>
       <r>     2.6158     6.9685   185.8533 </r>
       <r>     2.6777     6.0210   186.2258 </r>
       <r>     2.7395     4.9573   186.5324 </r>
       <r>     2.8014     4.3356   186.8007 </r>
       <r>     2.8633     4.2051   187.0608 </r>
       <r>     2.9251     4.2314   187.3226 </r>
       <r>     2.9870     4.1470   187.5792 </r>
       <r>     3.0488     3.9952   187.8263 </r>
       <r>     3.1107     3.9892   188.0731 </r>
       <r>     3.1726     4.1950   188.3327 </r>
       <r>     3.2344     4.3885   188.6042 </r>
       <r>     3.2963     4.2785   188.8689 </r>
       <r>     3.3582     3.8556   189.1074 </r>
       <r>     3.4200     3.4146   189.3186 </r>
       <r>     3.4819     3.2094   189.5172 </r>
       <r>     3.5438     3.1999   189.7152 </r>
       <r>     3.6056     3.1855   189.9122 </r>
       <r>     3.6675     3.0806   190.1028 </r>
       <r>     3.7294     2.9838   190.2874 </r>
       <r>     3.7912     3.0341   190.4751 </r>
       <r>     3.8531     3.2536   190.6764 </r>
       <r>     3.9150     3.5003   190.8930 </r>
       <r>     3.9768     3.5629   191.1134 </r>
       <r>     4.0387     3.3335   191.3196 </r>
       <r>     4.1006     2.8922   191.4986 </r>
       <r>     4.1624     2.4019   191.6472 </r>
       <r>     4.2243     1.9446   191.7675 </r>
       <r>     4.2862     1.4982   191.8601 </r>
       <r>     4.3480     1.0483   191.9250 </r>
       <r>     4.4099     0.6491   191.9652 </r>
       <r>     4.4718     0.3600   191.9874 </r>
       <r>     4.5336     0.1810   191.9986 </r>
       <r>     4.5955     0.0737   192.0032 </r>
       <r>     4.6574     0.0109   192.0039 </r>
       <r>     4.7192    -0.0175   192.0028 </r>
       <r>     4.7811    -0.0211   192.0015 </r>
       <r>     4.8430    -0.0140   192.0006 </r>
       <r>     4.9048    -0.0066   192.0002 </r>
       <r>     4.9667    -0.0023   192.0001 </r>
       <r>     5.0286    -0.0007   192.0000 </r>
       <r>     5.0904    -0.0001   192.0000 </r>
       <r>     5.1523    -0.0000   192.0000 </r>
       <r>     5.2142    -0.0000   192.0000 </r>
       <r>     5.2760    -0.0000   192.0000 </r>
       <r>     5.3379    -0.0000   192.0000 </r>
       <r>     5.3998    -0.0000   192.0000 </r>
       <r>     5.4616    -0.0000   192.0000 </r>
       <r>     5.5235    -0.0000   192.0000 </r>
       <r>     5.5854    -0.0000   192.0000 </r>
       <r>     5.6472    -0.0000   192.0000 </r>
       <r>     5.7091    -0.0000   192.0000 </r>
       <r>     5.7710     0.0000   192.0000 </r>
       <r>     5.8328     0.0000   192.0000 </r>
       <r>     5.8947     0.0000   192.0000 </r>
       <r>     5.9566     0.0000   192.0000 </r>
       <r>     6.0184     0.0000   192.0000 </r>
       <r>     6.0803     0.0000   192.0000 </r>
       <r>     6.1422     0.0000   192.0000 </r>
       <r>     6.2040     0.0000   192.0000 </r>
       <r>     6.2659     0.0000   192.0000 </r>
       <r>     6.3278     0.0000   192.0000 </r>
       <r>     6.3896     0.0000   192.0000 </r>
       <r>     6.4515     0.0000   192.0000 </r>
      </set>
     </set>
    </array>
   </total>
  </dos>
 </calculation>
 <structure name="finalpos" >
  <crystal>
   <varray name="basis" >
    <v>       5.55785930       0.00000000       0.00000000 </v>
    <v>       2.77892965       4.81324734       0.00000000 </v>
    <v>       0.00000000       0.00000000      30.80695967 </v>
   </varray>
   <i name="volume">    824.12780743 </i>
   <varray name="rec_basis" >
    <v>       0.17992539      -0.10387997       0.00000000 </v>
    <v>       0.00000000       0.20775994       0.00000000 </v>
    <v>       0.00000000       0.00000000       0.03246020 </v>
   </varray>
  </crystal>
  <varray name="positions" >
   <v>       0.00000000       0.00000000       0.38952237 </v>
   <v>       0.50000000       0.00000000       0.38952237 </v>
   <v>       0.00000000       0.50000000       0.38952237 </v>
   <v>       0.50000000       0.50000000       0.38952237 </v>
   <v>       0.16652883       0.16652883       0.46542487 </v>
   <v>       0.66694234       0.16652883       0.46542487 </v>
   <v>       0.16652883       0.66694234       0.46542487 </v>
   <v>       0.66666667       0.66666667       0.46426737 </v>
   <v>       0.83396869       0.33206261       0.54005199 </v>
   <v>       0.33333333       0.33333333       0.53994492 </v>
   <v>       0.83396869       0.83396869       0.54005199 </v>
   <v>       0.00000000       0.00000000       0.61904352 </v>
   <v>       0.50048728       0.99902544       0.61498914 </v>
   <v>       0.99902544       0.50048728       0.61498914 </v>
   <v>       0.50048728       0.50048728       0.61498914 </v>
   <v>       0.33206261       0.83396869       0.54005199 </v>
   <v>       0.00000000       0.00000000       0.66953436 </v>
  </varray>
  <varray name="selective"  type="logical" >
   <v type="logical" >  F  F  F </v>
   <v type="logical" >  F  F  F </v>
   <v type="logical" >  F  F  F </v>
   <v type="logical" >  F  F  F </v>
   <v type="logical" >  T  T  T </v>
   <v type="logical" >  T  T  T </v>
   <v type="logical" >  T  T  T </v>
   <v type="logical" >  T  T  T </v>
   <v type="logical" >  T  T  T </v>
   <v type="logical" >  T  T  T </v>
   <v type="logical" >  T  T  T </v>
   <v type="logical" >  T  T  T </v>
   <v type="logical" >  T  T  T </v>
   <v type="logical" >  T  T  T </v>
   <v type="logical" >  T  T  T </v>
   <v type="logical" >  T  T  T </v>
   <v type="logical" >  T  T  T </v>
  </varray>
  <nose>
   <v>      -3.00000000       0.00000000       0.00010000       0.00010000 </v>
  </nose>
 </structure>
</modeling>
