  17  17   0   0
  0.4847811E+02  0.5557859E-09  0.5557859E-09  0.3080696E-08  0.5000000E-15
  1.000000000000000E-004
  CAR 
 unknown system                          
      6.53671796    -12.06693965  301     -0.69366066      1.00000000
    -12.067  0.0000E+00  0.0000E+00
    -12.005  0.0000E+00  0.0000E+00
    -11.943  0.0000E+00  0.0000E+00
    -11.881  0.0000E+00  0.0000E+00
    -11.819  0.0000E+00  0.0000E+00
    -11.757  0.0000E+00  0.0000E+00
    -11.695 -0.3898E-28 -0.2417E-29
    -11.633 -0.5284E-26 -0.3301E-27
    -11.571 -0.5917E-24 -0.3702E-25
    -11.509 -0.5456E-22 -0.3420E-23
    -11.447 -0.4143E-20 -0.2603E-21
    -11.385 -0.2590E-18 -0.1632E-19
    -11.323 -0.1333E-16 -0.8428E-18
    -11.261 -0.5644E-15 -0.3584E-16
    -11.199 -0.1905E-13 -0.1217E-14
    -11.137 -0.5439E-12 -0.3495E-13
    -11.075 -0.1275E-10 -0.8258E-12
    -11.013 -0.2454E-09 -0.1605E-10
    -10.951 -0.3874E-08 -0.2563E-09
    -10.889 -0.5010E-07 -0.3363E-08
    -10.827 -0.5300E-06 -0.3623E-07
    -10.765 -0.4576E-05 -0.3200E-06
    -10.703 -0.3216E-04 -0.2315E-05
    -10.641 -0.1833E-03 -0.1368E-04
    -10.579 -0.8411E-03 -0.6584E-04
    -10.517 -0.3078E-02 -0.2567E-03
    -10.455 -0.8823E-02 -0.8038E-03
    -10.393 -0.1907E-01 -0.1987E-02
    -10.331 -0.2813E-01 -0.3731E-02
    -10.269 -0.1662E-01 -0.4762E-02
    -10.207  0.4530E-01 -0.1952E-02
    -10.145  0.1764E+00  0.8986E-02
    -10.083  0.3618E+00  0.3142E-01
    -10.021  0.5600E+00  0.6615E-01
     -9.959  0.7340E+00  0.1117E+00
     -9.897  0.8632E+00  0.1652E+00
     -9.835  0.9305E+00  0.2229E+00
     -9.772  0.9214E+00  0.2800E+00
     -9.710  0.8486E+00  0.3327E+00
     -9.648  0.7666E+00  0.3802E+00
     -9.586  0.7516E+00  0.4268E+00
     -9.524  0.8443E+00  0.4792E+00
     -9.462  0.9954E+00  0.5409E+00
     -9.400  0.1091E+01  0.6085E+00
     -9.338  0.1060E+01  0.6743E+00
     -9.276  0.9415E+00  0.7327E+00
     -9.214  0.8207E+00  0.7836E+00
     -9.152  0.7445E+00  0.8297E+00
     -9.090  0.7284E+00  0.8749E+00
     -9.028  0.8130E+00  0.9253E+00
     -8.966  0.1044E+01  0.9901E+00
     -8.904  0.1382E+01  0.1076E+01
     -8.842  0.1692E+01  0.1181E+01
     -8.780  0.1866E+01  0.1296E+01
     -8.718  0.1919E+01  0.1415E+01
     -8.656  0.1925E+01  0.1535E+01
     -8.594  0.1896E+01  0.1652E+01
     -8.532  0.1806E+01  0.1764E+01
     -8.470  0.1698E+01  0.1870E+01
     -8.408  0.1716E+01  0.1976E+01
     -8.346  0.1968E+01  0.2098E+01
     -8.284  0.2378E+01  0.2246E+01
     -8.222  0.2701E+01  0.2413E+01
     -8.160  0.2733E+01  0.2582E+01
     -8.098  0.2507E+01  0.2738E+01
     -8.036  0.2240E+01  0.2877E+01
     -7.974  0.2111E+01  0.3008E+01
     -7.912  0.2156E+01  0.3141E+01
     -7.850  0.2355E+01  0.3288E+01
     -7.788  0.2744E+01  0.3458E+01
     -7.726  0.3391E+01  0.3668E+01
     -7.664  0.4256E+01  0.3932E+01
     -7.602  0.5119E+01  0.4249E+01
     -7.540  0.5751E+01  0.4606E+01
     -7.478  0.6201E+01  0.4991E+01
     -7.416  0.6802E+01  0.5412E+01
     -7.354  0.7815E+01  0.5897E+01
     -7.292  0.9180E+01  0.6466E+01
     -7.230  0.1067E+02  0.7128E+01
     -7.168  0.1209E+02  0.7878E+01
     -7.106  0.1328E+02  0.8701E+01
     -7.044  0.1392E+02  0.9564E+01
     -6.982  0.1380E+02  0.1042E+02
     -6.920  0.1309E+02  0.1123E+02
     -6.858  0.1243E+02  0.1200E+02
     -6.796  0.1263E+02  0.1279E+02
     -6.734  0.1421E+02  0.1367E+02
     -6.672  0.1700E+02  0.1472E+02
     -6.610  0.2020E+02  0.1597E+02
     -6.548  0.2286E+02  0.1739E+02
     -6.486  0.2450E+02  0.1891E+02
     -6.424  0.2518E+02  0.2047E+02
     -6.362  0.2510E+02  0.2203E+02
     -6.300  0.2444E+02  0.2354E+02
     -6.238  0.2342E+02  0.2500E+02
     -6.176  0.2243E+02  0.2639E+02
     -6.114  0.2172E+02  0.2773E+02
     -6.052  0.2125E+02  0.2905E+02
     -5.990  0.2071E+02  0.3034E+02
     -5.928  0.1982E+02  0.3157E+02
     -5.866  0.1864E+02  0.3272E+02
     -5.804  0.1762E+02  0.3381E+02
     -5.742  0.1722E+02  0.3488E+02
     -5.680  0.1755E+02  0.3597E+02
     -5.618  0.1842E+02  0.3711E+02
     -5.556  0.1947E+02  0.3832E+02
     -5.494  0.2039E+02  0.3958E+02
     -5.432  0.2086E+02  0.4088E+02
     -5.370  0.2070E+02  0.4216E+02
     -5.308  0.1998E+02  0.4340E+02
     -5.246  0.1910E+02  0.4459E+02
     -5.184  0.1865E+02  0.4574E+02
     -5.122  0.1894E+02  0.4692E+02
     -5.060  0.1981E+02  0.4814E+02
     -4.998  0.2083E+02  0.4944E+02
     -4.936  0.2166E+02  0.5078E+02
     -4.874  0.2215E+02  0.5215E+02
     -4.812  0.2213E+02  0.5353E+02
     -4.750  0.2166E+02  0.5487E+02
     -4.687  0.2124E+02  0.5619E+02
     -4.625  0.2182E+02  0.5754E+02
     -4.563  0.2398E+02  0.5903E+02
     -4.501  0.2727E+02  0.6072E+02
     -4.439  0.3019E+02  0.6259E+02
     -4.377  0.3115E+02  0.6452E+02
     -4.315  0.2974E+02  0.6636E+02
     -4.253  0.2721E+02  0.6805E+02
     -4.191  0.2557E+02  0.6964E+02
     -4.129  0.2599E+02  0.7125E+02
     -4.067  0.2805E+02  0.7299E+02
     -4.005  0.3048E+02  0.7488E+02
     -3.943  0.3250E+02  0.7689E+02
     -3.881  0.3406E+02  0.7901E+02
     -3.819  0.3523E+02  0.8119E+02
     -3.757  0.3569E+02  0.8341E+02
     -3.695  0.3528E+02  0.8559E+02
     -3.633  0.3447E+02  0.8773E+02
     -3.571  0.3392E+02  0.8983E+02
     -3.509  0.3344E+02  0.9191E+02
     -3.447  0.3203E+02  0.9389E+02
     -3.385  0.2907E+02  0.9570E+02
     -3.323  0.2513E+02  0.9725E+02
     -3.261  0.2143E+02  0.9858E+02
     -3.199  0.1869E+02  0.9974E+02
     -3.137  0.1703E+02  0.1008E+03
     -3.075  0.1660E+02  0.1018E+03
     -3.013  0.1775E+02  0.1029E+03
     -2.951  0.2052E+02  0.1042E+03
     -2.889  0.2423E+02  0.1057E+03
     -2.827  0.2767E+02  0.1074E+03
     -2.765  0.2952E+02  0.1093E+03
     -2.703  0.2893E+02  0.1110E+03
     -2.641  0.2623E+02  0.1127E+03
     -2.579  0.2298E+02  0.1141E+03
     -2.517  0.2101E+02  0.1154E+03
     -2.455  0.2108E+02  0.1167E+03
     -2.393  0.2256E+02  0.1181E+03
     -2.331  0.2421E+02  0.1196E+03
     -2.269  0.2524E+02  0.1212E+03
     -2.207  0.2558E+02  0.1228E+03
     -2.145  0.2558E+02  0.1243E+03
     -2.083  0.2556E+02  0.1259E+03
     -2.021  0.2567E+02  0.1275E+03
     -1.959  0.2602E+02  0.1291E+03
     -1.897  0.2657E+02  0.1308E+03
     -1.835  0.2690E+02  0.1325E+03
     -1.773  0.2643E+02  0.1341E+03
     -1.711  0.2504E+02  0.1356E+03
     -1.649  0.2328E+02  0.1371E+03
     -1.587  0.2194E+02  0.1384E+03
     -1.525  0.2147E+02  0.1398E+03
     -1.463  0.2175E+02  0.1411E+03
     -1.401  0.2218E+02  0.1425E+03
     -1.339  0.2209E+02  0.1439E+03
     -1.277  0.2125E+02  0.1452E+03
     -1.215  0.2021E+02  0.1464E+03
     -1.153  0.2011E+02  0.1477E+03
     -1.091  0.2195E+02  0.1491E+03
     -1.029  0.2555E+02  0.1506E+03
     -0.967  0.2945E+02  0.1525E+03
     -0.905  0.3204E+02  0.1545E+03
     -0.843  0.3271E+02  0.1565E+03
     -0.781  0.3180E+02  0.1585E+03
     -0.719  0.2980E+02  0.1603E+03
     -0.657  0.2720E+02  0.1620E+03
     -0.595  0.2467E+02  0.1635E+03
     -0.533  0.2289E+02  0.1649E+03
     -0.471  0.2181E+02  0.1663E+03
     -0.409  0.2056E+02  0.1676E+03
     -0.347  0.1836E+02  0.1687E+03
     -0.285  0.1542E+02  0.1697E+03
     -0.223  0.1271E+02  0.1704E+03
     -0.161  0.1085E+02  0.1711E+03
     -0.099  0.9662E+01  0.1717E+03
     -0.037  0.8462E+01  0.1722E+03
      0.025  0.6853E+01  0.1727E+03
      0.087  0.5036E+01  0.1730E+03
      0.149  0.3592E+01  0.1732E+03
      0.211  0.2995E+01  0.1734E+03
      0.273  0.3270E+01  0.1736E+03
      0.335  0.3999E+01  0.1738E+03
      0.398  0.4690E+01  0.1741E+03
      0.460  0.5161E+01  0.1744E+03
      0.522  0.5542E+01  0.1748E+03
      0.584  0.5886E+01  0.1752E+03
      0.646  0.6005E+01  0.1755E+03
      0.708  0.5751E+01  0.1759E+03
      0.770  0.5325E+01  0.1762E+03
      0.832  0.5111E+01  0.1765E+03
      0.894  0.5291E+01  0.1769E+03
      0.956  0.5726E+01  0.1772E+03
      1.018  0.6123E+01  0.1776E+03
      1.080  0.6198E+01  0.1780E+03
      1.142  0.5787E+01  0.1783E+03
      1.204  0.4975E+01  0.1786E+03
      1.266  0.4090E+01  0.1789E+03
      1.328  0.3492E+01  0.1791E+03
      1.390  0.3379E+01  0.1793E+03
      1.452  0.3768E+01  0.1796E+03
      1.514  0.4505E+01  0.1798E+03
      1.576  0.5261E+01  0.1802E+03
      1.638  0.5703E+01  0.1805E+03
      1.700  0.5812E+01  0.1809E+03
      1.762  0.5881E+01  0.1812E+03
      1.824  0.6103E+01  0.1816E+03
      1.886  0.6262E+01  0.1820E+03
      1.948  0.5963E+01  0.1824E+03
      2.010  0.5118E+01  0.1827E+03
      2.072  0.4081E+01  0.1830E+03
      2.134  0.3327E+01  0.1832E+03
      2.196  0.3117E+01  0.1834E+03
      2.258  0.3469E+01  0.1836E+03
      2.320  0.4249E+01  0.1838E+03
      2.382  0.5223E+01  0.1842E+03
      2.444  0.6102E+01  0.1845E+03
      2.506  0.6668E+01  0.1849E+03
      2.568  0.6827E+01  0.1854E+03
      2.630  0.6553E+01  0.1858E+03
      2.692  0.5866E+01  0.1861E+03
      2.754  0.4933E+01  0.1864E+03
      2.816  0.4110E+01  0.1867E+03
      2.878  0.3720E+01  0.1869E+03
      2.940  0.3803E+01  0.1872E+03
      3.002  0.4127E+01  0.1874E+03
      3.064  0.4415E+01  0.1877E+03
      3.126  0.4533E+01  0.1880E+03
      3.188  0.4501E+01  0.1883E+03
      3.250  0.4380E+01  0.1885E+03
      3.312  0.4157E+01  0.1888E+03
      3.374  0.3800E+01  0.1890E+03
      3.436  0.3431E+01  0.1892E+03
      3.498  0.3307E+01  0.1894E+03
      3.560  0.3531E+01  0.1897E+03
      3.622  0.3888E+01  0.1899E+03
      3.684  0.4062E+01  0.1902E+03
      3.746  0.3956E+01  0.1904E+03
      3.808  0.3694E+01  0.1906E+03
      3.870  0.3389E+01  0.1908E+03
      3.932  0.3055E+01  0.1910E+03
      3.994  0.2721E+01  0.1912E+03
      4.056  0.2486E+01  0.1913E+03
      4.118  0.2396E+01  0.1915E+03
      4.180  0.2322E+01  0.1916E+03
      4.242  0.2062E+01  0.1918E+03
      4.304  0.1552E+01  0.1919E+03
      4.366  0.9493E+00  0.1919E+03
      4.428  0.4809E+00  0.1920E+03
      4.490  0.2494E+00  0.1920E+03
      4.552  0.1863E+00  0.1920E+03
      4.614  0.1634E+00  0.1920E+03
      4.676  0.1132E+00  0.1920E+03
      4.738  0.4797E-01  0.1920E+03
      4.800  0.1894E-02  0.1920E+03
      4.862 -0.1435E-01  0.1920E+03
      4.924 -0.1253E-01  0.1920E+03
      4.986 -0.6515E-02  0.1920E+03
      5.048 -0.2446E-02  0.1920E+03
      5.110 -0.7035E-03  0.1920E+03
      5.172 -0.1592E-03  0.1920E+03
      5.234 -0.2876E-04  0.1920E+03
      5.296 -0.4185E-05  0.1920E+03
      5.358 -0.4934E-06  0.1920E+03
      5.420 -0.4731E-07  0.1920E+03
      5.483 -0.3700E-08  0.1920E+03
      5.545 -0.2365E-09  0.1920E+03
      5.607 -0.1238E-10  0.1920E+03
      5.669 -0.5311E-12  0.1920E+03
      5.731 -0.1857E-13  0.1920E+03
      5.793 -0.6714E-15  0.1920E+03
      5.855  0.0000E+00  0.1920E+03
      5.917  0.0000E+00  0.1920E+03
      5.979  0.0000E+00  0.1920E+03
      6.041  0.0000E+00  0.1920E+03
      6.103  0.0000E+00  0.1920E+03
      6.165  0.0000E+00  0.1920E+03
      6.227  0.0000E+00  0.1920E+03
      6.289  0.0000E+00  0.1920E+03
      6.351  0.0000E+00  0.1920E+03
      6.413  0.0000E+00  0.1920E+03
      6.475  0.0000E+00  0.1920E+03
      6.537  0.0000E+00  0.1920E+03
