   17   17    1    1
  0.4847811E+02  0.5557859E-09  0.5557859E-09  0.3080696E-08  0.5000000E-15
  1.000000000000000E-004
  CAR 
 unknown system                          
    161     20     96
 
  0.6250000E-01  0.6250000E-01  0.0000000E+00  0.3125000E-01
    1      -10.066940   1.000000
    2       -8.838574   1.000000
    3       -7.770306   1.000000
    4       -7.624311   1.000000
    5       -7.347049   1.000000
    6       -7.303416   1.000000
    7       -7.289970   1.000000
    8       -7.178646   1.000000
    9       -7.146277   1.000000
   10       -7.137581   1.000000
   11       -6.789433   1.000000
   12       -6.683877   1.000000
   13       -6.676196   1.000000
   14       -6.655460   1.000000
   15       -6.646078   1.000000
   16       -6.521029   1.000000
   17       -6.485860   1.000000
   18       -6.472193   1.000000
   19       -6.412589   1.000000
   20       -5.930165   1.000000
   21       -5.693278   1.000000
   22       -5.691269   1.000000
   23       -5.457611   1.000000
   24       -4.854502   1.000000
   25       -4.846249   1.000000
   26       -4.730374   1.000000
   27       -4.603128   1.000000
   28       -4.595285   1.000000
   29       -4.496828   1.000000
   30       -4.467192   1.000000
   31       -4.287452   1.000000
   32       -4.208859   1.000000
   33       -4.166302   1.000000
   34       -4.036821   1.000000
   35       -4.027332   1.000000
   36       -3.913080   1.000000
   37       -3.876210   1.000000
   38       -3.867371   1.000000
   39       -3.798027   1.000000
   40       -3.780275   1.000000
   41       -3.745907   1.000000
   42       -3.707909   1.000000
   43       -3.438826   1.000000
   44       -3.390657   1.000000
   45       -3.373265   1.000000
   46       -3.354972   1.000000
   47       -3.021246   1.000000
   48       -3.010111   1.000000
   49       -2.860491   1.000000
   50       -2.794186   1.000000
   51       -2.691881   1.000000
   52       -2.303924   1.000000
   53       -2.190522   1.000000
   54       -2.186091   1.000000
   55       -2.079474   1.000000
   56       -2.064440   1.000000
   57       -1.792118   1.000000
   58       -1.778724   1.000000
   59       -1.639284   1.000000
   60       -1.611653   1.000000
   61       -1.474546   1.000000
   62       -1.469434   1.000000
   63       -1.394068   1.000004
   64       -1.364907   1.000011
   65       -1.088680   1.008657
   66       -1.026449   1.020144
   67       -0.997187   1.026859
   68       -0.966964   1.032923
   69       -0.852691   0.988797
   70       -0.829976   0.953276
   71       -0.776398   0.819084
   72       -0.712854   0.580800
   73       -0.697255   0.515205
   74       -0.656108   0.344165
   75       -0.609182   0.175450
   76       -0.513350  -0.011665
   77       -0.462293  -0.034680
   78       -0.437173  -0.034984
   79       -0.373598  -0.023051
   80       -0.325977  -0.012999
   81       -0.236302  -0.002845
   82       -0.184033  -0.000931
   83       -0.131320  -0.000257
   84       -0.104461  -0.000126
   85       -0.053249  -0.000029
   86        0.013066  -0.000003
   87        0.383699  -0.000000
   88        0.452543  -0.000000
   89        1.301738  -0.000000
   90        1.462384  -0.000000
   91        1.702132  -0.000000
   92        1.707852  -0.000000
   93        1.818310  -0.000000
   94        1.852014  -0.000000
   95        2.505387  -0.000000
   96        2.687538  -0.000000
 
  0.1875000E+00  0.6250000E-01  0.0000000E+00  0.6250000E-01
    1       -9.862892   1.000000
    2       -8.639241   1.000000
    3       -7.565906   1.000000
    4       -7.430409   1.000000
    5       -7.315891   1.000000
    6       -7.234430   1.000000
    7       -7.117242   1.000000
    8       -7.088411   1.000000
    9       -7.035026   1.000000
   10       -6.966137   1.000000
   11       -6.699405   1.000000
   12       -6.613043   1.000000
   13       -6.574306   1.000000
   14       -6.564266   1.000000
   15       -6.519092   1.000000
   16       -6.399308   1.000000
   17       -6.366937   1.000000
   18       -6.294779   1.000000
   19       -6.255175   1.000000
   20       -5.887414   1.000000
   21       -5.636101   1.000000
   22       -5.624475   1.000000
   23       -5.411762   1.000000
   24       -4.886963   1.000000
   25       -4.827579   1.000000
   26       -4.762782   1.000000
   27       -4.608451   1.000000
   28       -4.515344   1.000000
   29       -4.495018   1.000000
   30       -4.428007   1.000000
   31       -4.393981   1.000000
   32       -4.327115   1.000000
   33       -4.039477   1.000000
   34       -4.021920   1.000000
   35       -4.006021   1.000000
   36       -3.975824   1.000000
   37       -3.887413   1.000000
   38       -3.846534   1.000000
   39       -3.809959   1.000000
   40       -3.764489   1.000000
   41       -3.740043   1.000000
   42       -3.603282   1.000000
   43       -3.577584   1.000000
   44       -3.555981   1.000000
   45       -3.506305   1.000000
   46       -3.475028   1.000000
   47       -3.247397   1.000000
   48       -3.162471   1.000000
   49       -2.910058   1.000000
   50       -2.842810   1.000000
   51       -2.646771   1.000000
   52       -2.625532   1.000000
   53       -2.341595   1.000000
   54       -2.311573   1.000000
   55       -2.222721   1.000000
   56       -2.107062   1.000000
   57       -1.996900   1.000000
   58       -1.864831   1.000000
   59       -1.817455   1.000000
   60       -1.784203   1.000000
   61       -1.754396   1.000000
   62       -1.683789   1.000000
   63       -1.638364   1.000000
   64       -1.555096   1.000000
   65       -1.530243   1.000000
   66       -1.441638   1.000001
   67       -1.357350   1.000014
   68       -1.147300   1.003061
   69       -1.073089   1.010987
   70       -1.024907   1.020491
   71       -1.001450   1.025887
   72       -0.921814   1.034243
   73       -0.881263   1.017441
   74       -0.837219   0.965931
   75       -0.803758   0.896557
   76       -0.741873   0.697578
   77       -0.688140   0.476649
   78       -0.643061   0.293305
   79       -0.612795   0.186871
   80       -0.510141  -0.014328
   81       -0.463052  -0.034586
   82       -0.428601  -0.034104
   83       -0.374986  -0.023372
   84       -0.357878  -0.019475
   85       -0.228557  -0.002436
   86        0.285102  -0.000000
   87        0.328645  -0.000000
   88        0.566598  -0.000000
   89        0.918876  -0.000000
   90        1.095607  -0.000000
   91        1.366369  -0.000000
   92        1.597838  -0.000000
   93        2.250250  -0.000000
   94        2.513453  -0.000000
   95        2.765735  -0.000000
   96        3.145735  -0.000000
 
  0.3125000E+00  0.6250000E-01  0.0000000E+00  0.6250000E-01
    1       -9.409252   1.000000
    2       -8.209128   1.000000
    3       -7.412580   1.000000
    4       -7.136070   1.000000
    5       -7.021732   1.000000
    6       -7.007318   1.000000
    7       -6.961032   1.000000
    8       -6.786664   1.000000
    9       -6.739113   1.000000
   10       -6.660751   1.000000
   11       -6.577614   1.000000
   12       -6.462819   1.000000
   13       -6.350795   1.000000
   14       -6.317841   1.000000
   15       -6.230588   1.000000
   16       -6.188697   1.000000
   17       -6.047865   1.000000
   18       -5.959438   1.000000
   19       -5.899855   1.000000
   20       -5.731135   1.000000
   21       -5.512210   1.000000
   22       -5.484004   1.000000
   23       -5.315890   1.000000
   24       -4.992935   1.000000
   25       -4.914932   1.000000
   26       -4.805975   1.000000
   27       -4.731904   1.000000
   28       -4.657654   1.000000
   29       -4.587767   1.000000
   30       -4.391185   1.000000
   31       -4.371507   1.000000
   32       -4.291046   1.000000
   33       -4.190872   1.000000
   34       -4.172765   1.000000
   35       -4.113161   1.000000
   36       -3.984878   1.000000
   37       -3.939304   1.000000
   38       -3.873821   1.000000
   39       -3.842115   1.000000
   40       -3.809207   1.000000
   41       -3.719382   1.000000
   42       -3.677194   1.000000
   43       -3.662305   1.000000
   44       -3.632728   1.000000
   45       -3.533474   1.000000
   46       -3.503310   1.000000
   47       -3.411990   1.000000
   48       -3.242260   1.000000
   49       -3.200524   1.000000
   50       -2.982009   1.000000
   51       -2.906706   1.000000
   52       -2.804449   1.000000
   53       -2.726504   1.000000
   54       -2.646145   1.000000
   55       -2.620326   1.000000
   56       -2.536716   1.000000
   57       -2.501905   1.000000
   58       -2.476958   1.000000
   59       -2.407241   1.000000
   60       -2.364697   1.000000
   61       -2.243786   1.000000
   62       -2.106193   1.000000
   63       -2.036352   1.000000
   64       -1.950913   1.000000
   65       -1.865879   1.000000
   66       -1.828302   1.000000
   67       -1.772527   1.000000
   68       -1.593392   1.000000
   69       -1.525055   1.000000
   70       -1.426567   1.000001
   71       -1.371714   1.000009
   72       -1.312579   1.000054
   73       -1.265954   1.000198
   74       -1.192532   1.001187
   75       -1.063461   1.012620
   76       -1.018495   1.021952
   77       -0.951748   1.034851
   78       -0.917999   1.033583
   79       -0.821945   0.937736
   80       -0.744399   0.707221
   81       -0.714363   0.587082
   82       -0.681537   0.448803
   83       -0.553538   0.039913
   84       -0.436401  -0.034922
   85       -0.379767  -0.024479
   86       -0.026605  -0.000013
   87        0.381907  -0.000000
   88        0.675415  -0.000000
   89        0.986988  -0.000000
   90        1.432339  -0.000000
   91        1.835575  -0.000000
   92        1.972877  -0.000000
   93        2.321120  -0.000000
   94        2.497567  -0.000000
   95        3.203614  -0.000000
   96        3.595722  -0.000000
 
  0.4375000E+00  0.6250000E-01  0.0000000E+00  0.6250000E-01
    1       -8.770548   1.000000
    2       -7.783540   1.000000
    3       -7.654694   1.000000
    4       -7.057773   1.000000
    5       -6.695804   1.000000
    6       -6.632854   1.000000
    7       -6.546943   1.000000
    8       -6.471714   1.000000
    9       -6.423472   1.000000
   10       -6.404561   1.000000
   11       -6.348214   1.000000
   12       -6.194474   1.000000
   13       -6.068435   1.000000
   14       -6.006081   1.000000
   15       -5.945392   1.000000
   16       -5.889429   1.000000
   17       -5.763019   1.000000
   18       -5.607809   1.000000
   19       -5.540338   1.000000
   20       -5.429168   1.000000
   21       -5.312026   1.000000
   22       -5.265621   1.000000
   23       -5.220539   1.000000
   24       -5.099535   1.000000
   25       -5.072927   1.000000
   26       -4.949605   1.000000
   27       -4.878233   1.000000
   28       -4.840716   1.000000
   29       -4.645378   1.000000
   30       -4.609128   1.000000
   31       -4.501903   1.000000
   32       -4.473461   1.000000
   33       -4.388073   1.000000
   34       -4.347303   1.000000
   35       -4.309655   1.000000
   36       -4.168081   1.000000
   37       -4.099502   1.000000
   38       -4.017311   1.000000
   39       -3.984471   1.000000
   40       -3.865642   1.000000
   41       -3.794163   1.000000
   42       -3.738568   1.000000
   43       -3.715355   1.000000
   44       -3.623111   1.000000
   45       -3.555936   1.000000
   46       -3.510420   1.000000
   47       -3.487234   1.000000
   48       -3.433686   1.000000
   49       -3.388441   1.000000
   50       -3.323051   1.000000
   51       -3.286332   1.000000
   52       -3.210653   1.000000
   53       -3.159050   1.000000
   54       -3.112872   1.000000
   55       -2.894816   1.000000
   56       -2.860939   1.000000
   57       -2.795834   1.000000
   58       -2.768067   1.000000
   59       -2.719706   1.000000
   60       -2.692705   1.000000
   61       -2.441803   1.000000
   62       -2.376483   1.000000
   63       -2.316716   1.000000
   64       -2.275682   1.000000
   65       -2.210654   1.000000
   66       -2.126859   1.000000
   67       -2.039552   1.000000
   68       -1.993742   1.000000
   69       -1.904591   1.000000
   70       -1.842862   1.000000
   71       -1.750950   1.000000
   72       -1.710534   1.000000
   73       -1.610430   1.000000
   74       -1.515485   1.000000
   75       -1.377927   1.000007
   76       -1.302989   1.000072
   77       -1.204018   1.000916
   78       -1.001485   1.025879
   79       -0.931000   1.035223
   80       -0.774887   0.814285
   81       -0.751416   0.733451
   82       -0.690050   0.484726
   83       -0.556421   0.045037
   84       -0.442337  -0.035308
   85       -0.370217  -0.022271
   86       -0.205775  -0.001511
   87        0.659527  -0.000000
   88        0.847533  -0.000000
   89        1.090987  -0.000000
   90        1.597992  -0.000000
   91        1.939303  -0.000000
   92        2.113232  -0.000000
   93        2.438217  -0.000000
   94        2.703518  -0.000000
   95        3.501805  -0.000000
   96        3.763598  -0.000000
 
 -0.4375000E+00  0.6250000E-01  0.0000000E+00  0.6250000E-01
    1       -8.421560   1.000000
    2       -8.075510   1.000000
    3       -7.413952   1.000000
    4       -7.171583   1.000000
    5       -6.589778   1.000000
    6       -6.522613   1.000000
    7       -6.478723   1.000000
    8       -6.379343   1.000000
    9       -6.321492   1.000000
   10       -6.266140   1.000000
   11       -6.217748   1.000000
   12       -6.125155   1.000000
   13       -6.048833   1.000000
   14       -5.930946   1.000000
   15       -5.858981   1.000000
   16       -5.726774   1.000000
   17       -5.597482   1.000000
   18       -5.541484   1.000000
   19       -5.462115   1.000000
   20       -5.413984   1.000000
   21       -5.299384   1.000000
   22       -5.219560   1.000000
   23       -5.154080   1.000000
   24       -5.085809   1.000000
   25       -5.039157   1.000000
   26       -5.011445   1.000000
   27       -4.931056   1.000000
   28       -4.888227   1.000000
   29       -4.729838   1.000000
   30       -4.620282   1.000000
   31       -4.566358   1.000000
   32       -4.513088   1.000000
   33       -4.481880   1.000000
   34       -4.448250   1.000000
   35       -4.335014   1.000000
   36       -4.239877   1.000000
   37       -4.132613   1.000000
   38       -4.017976   1.000000
   39       -3.994577   1.000000
   40       -3.942495   1.000000
   41       -3.895355   1.000000
   42       -3.838313   1.000000
   43       -3.762246   1.000000
   44       -3.728697   1.000000
   45       -3.666834   1.000000
   46       -3.592799   1.000000
   47       -3.559769   1.000000
   48       -3.520152   1.000000
   49       -3.490357   1.000000
   50       -3.440657   1.000000
   51       -3.432422   1.000000
   52       -3.325158   1.000000
   53       -3.254794   1.000000
   54       -2.976651   1.000000
   55       -2.933971   1.000000
   56       -2.841475   1.000000
   57       -2.798047   1.000000
   58       -2.755242   1.000000
   59       -2.664769   1.000000
   60       -2.551974   1.000000
   61       -2.520602   1.000000
   62       -2.443633   1.000000
   63       -2.385750   1.000000
   64       -2.322113   1.000000
   65       -2.269482   1.000000
   66       -2.220796   1.000000
   67       -2.157546   1.000000
   68       -2.077929   1.000000
   69       -2.029172   1.000000
   70       -1.983198   1.000000
   71       -1.866500   1.000000
   72       -1.836890   1.000000
   73       -1.778150   1.000000
   74       -1.624947   1.000000
   75       -1.411722   1.000002
   76       -1.374826   1.000008
   77       -1.250565   1.000296
   78       -1.006744   1.024667
   79       -0.919631   1.033884
   80       -0.763291   0.775768
   81       -0.720487   0.612387
   82       -0.661178   0.364545
   83       -0.542657   0.022373
   84       -0.451246  -0.035433
   85       -0.418377  -0.032599
   86       -0.255675  -0.004128
   87        0.790468  -0.000000
   88        0.876327  -0.000000
   89        1.133388  -0.000000
   90        1.539417  -0.000000
   91        1.936482  -0.000000
   92        2.100126  -0.000000
   93        2.453329  -0.000000
   94        2.892594  -0.000000
   95        3.649951  -0.000000
   96        3.849932  -0.000000
 
 -0.3125000E+00  0.6250000E-01  0.0000000E+00  0.6250000E-01
    1       -9.106700   1.000000
    2       -7.938173   1.000000
    3       -7.553098   1.000000
    4       -7.007152   1.000000
    5       -6.887269   1.000000
    6       -6.801702   1.000000
    7       -6.756873   1.000000
    8       -6.618272   1.000000
    9       -6.570100   1.000000
   10       -6.522391   1.000000
   11       -6.491770   1.000000
   12       -6.325067   1.000000
   13       -6.192965   1.000000
   14       -6.147712   1.000000
   15       -6.100186   1.000000
   16       -6.030972   1.000000
   17       -5.901144   1.000000
   18       -5.759927   1.000000
   19       -5.716154   1.000000
   20       -5.565965   1.000000
   21       -5.416899   1.000000
   22       -5.385070   1.000000
   23       -5.251172   1.000000
   24       -5.062418   1.000000
   25       -5.030901   1.000000
   26       -4.878678   1.000000
   27       -4.803816   1.000000
   28       -4.719723   1.000000
   29       -4.654119   1.000000
   30       -4.482428   1.000000
   31       -4.402400   1.000000
   32       -4.354038   1.000000
   33       -4.280146   1.000000
   34       -4.216904   1.000000
   35       -4.181369   1.000000
   36       -4.087361   1.000000
   37       -4.031695   1.000000
   38       -3.995938   1.000000
   39       -3.969502   1.000000
   40       -3.858782   1.000000
   41       -3.742840   1.000000
   42       -3.701756   1.000000
   43       -3.648591   1.000000
   44       -3.573288   1.000000
   45       -3.518819   1.000000
   46       -3.456855   1.000000
   47       -3.398343   1.000000
   48       -3.334808   1.000000
   49       -3.186631   1.000000
   50       -3.152220   1.000000
   51       -3.058136   1.000000
   52       -3.006024   1.000000
   53       -2.969742   1.000000
   54       -2.921600   1.000000
   55       -2.905152   1.000000
   56       -2.801188   1.000000
   57       -2.758439   1.000000
   58       -2.675410   1.000000
   59       -2.669658   1.000000
   60       -2.591164   1.000000
   61       -2.450488   1.000000
   62       -2.228720   1.000000
   63       -2.188625   1.000000
   64       -2.118433   1.000000
   65       -2.022323   1.000000
   66       -1.998267   1.000000
   67       -1.905980   1.000000
   68       -1.837648   1.000000
   69       -1.753835   1.000000
   70       -1.674824   1.000000
   71       -1.589353   1.000000
   72       -1.463042   1.000000
   73       -1.430434   1.000001
   74       -1.331927   1.000031
   75       -1.271522   1.000171
   76       -1.206088   1.000873
   77       -1.019723   1.021670
   78       -0.988855   1.028709
   79       -0.949135   1.035061
   80       -0.816660   0.926631
   81       -0.746775   0.716199
   82       -0.706651   0.554839
   83       -0.561708   0.054967
   84       -0.439906  -0.035177
   85       -0.364220  -0.020900
   86       -0.084816  -0.000073
   87        0.470240  -0.000000
   88        0.781323  -0.000000
   89        1.040662  -0.000000
   90        1.589999  -0.000000
   91        1.913574  -0.000000
   92        2.144113  -0.000000
   93        2.419415  -0.000000
   94        2.431465  -0.000000
   95        3.361717  -0.000000
   96        3.688724  -0.000000
 
 -0.1875000E+00  0.6250000E-01  0.0000000E+00  0.6250000E-01
    1       -9.664467   1.000000
    2       -8.448465   1.000000
    3       -7.377251   1.000000
    4       -7.335523   1.000000
    5       -7.246307   1.000000
    6       -7.124882   1.000000
    7       -7.037188   1.000000
    8       -6.962859   1.000000
    9       -6.902549   1.000000
   10       -6.820094   1.000000
   11       -6.628398   1.000000
   12       -6.566445   1.000000
   13       -6.477777   1.000000
   14       -6.461350   1.000000
   15       -6.385015   1.000000
   16       -6.306600   1.000000
   17       -6.220602   1.000000
   18       -6.142057   1.000000
   19       -6.091646   1.000000
   20       -5.833633   1.000000
   21       -5.582243   1.000000
   22       -5.562052   1.000000
   23       -5.369233   1.000000
   24       -4.931135   1.000000
   25       -4.840191   1.000000
   26       -4.781175   1.000000
   27       -4.659077   1.000000
   28       -4.585638   1.000000
   29       -4.461073   1.000000
   30       -4.441421   1.000000
   31       -4.387677   1.000000
   32       -4.334141   1.000000
   33       -4.102247   1.000000
   34       -4.068521   1.000000
   35       -4.057901   1.000000
   36       -3.915930   1.000000
   37       -3.873243   1.000000
   38       -3.833229   1.000000
   39       -3.795451   1.000000
   40       -3.788405   1.000000
   41       -3.723584   1.000000
   42       -3.678654   1.000000
   43       -3.657088   1.000000
   44       -3.597549   1.000000
   45       -3.538851   1.000000
   46       -3.431198   1.000000
   47       -3.401995   1.000000
   48       -3.315103   1.000000
   49       -3.003514   1.000000
   50       -2.891356   1.000000
   51       -2.811936   1.000000
   52       -2.672336   1.000000
   53       -2.511367   1.000000
   54       -2.419929   1.000000
   55       -2.369384   1.000000
   56       -2.260836   1.000000
   57       -2.240353   1.000000
   58       -2.126916   1.000000
   59       -2.109961   1.000000
   60       -2.055519   1.000000
   61       -1.937715   1.000000
   62       -1.871383   1.000000
   63       -1.813262   1.000000
   64       -1.785751   1.000000
   65       -1.758567   1.000000
   66       -1.709305   1.000000
   67       -1.503399   1.000000
   68       -1.434523   1.000001
   69       -1.252331   1.000283
   70       -1.200583   1.000991
   71       -1.166535   1.002077
   72       -1.144630   1.003225
   73       -1.024433   1.020598
   74       -1.012162   1.023412
   75       -0.946613   1.035224
   76       -0.885392   1.020288
   77       -0.841664   0.973072
   78       -0.761076   0.768086
   79       -0.741569   0.696410
   80       -0.671176   0.405521
   81       -0.575844   0.084944
   82       -0.516131  -0.009199
   83       -0.427421  -0.033953
   84       -0.404536  -0.029993
   85       -0.295138  -0.008187
   86       -0.186172  -0.000978
   87        0.512540  -0.000000
   88        0.583617  -0.000000
   89        0.938945  -0.000000
   90        1.131958  -0.000000
   91        1.677153  -0.000000
   92        1.752214  -0.000000
   93        2.273176  -0.000000
   94        2.616214  -0.000000
   95        2.962582  -0.000000
   96        3.561401  -0.000000
 
 -0.6250000E-01  0.6250000E-01  0.0000000E+00  0.3125000E-01
    1       -9.998312   1.000000
    2       -8.771234   1.000000
    3       -7.701062   1.000000
    4       -7.558687   1.000000
    5       -7.325380   1.000000
    6       -7.291052   1.000000
    7       -7.229008   1.000000
    8       -7.142363   1.000000
    9       -7.114725   1.000000
   10       -7.077494   1.000000
   11       -6.758441   1.000000
   12       -6.652717   1.000000
   13       -6.637004   1.000000
   14       -6.629716   1.000000
   15       -6.606625   1.000000
   16       -6.477443   1.000000
   17       -6.451760   1.000000
   18       -6.409759   1.000000
   19       -6.361915   1.000000
   20       -5.916776   1.000000
   21       -5.673905   1.000000
   22       -5.668388   1.000000
   23       -5.441933   1.000000
   24       -4.863535   1.000000
   25       -4.838726   1.000000
   26       -4.740865   1.000000
   27       -4.597794   1.000000
   28       -4.567699   1.000000
   29       -4.476647   1.000000
   30       -4.462555   1.000000
   31       -4.344833   1.000000
   32       -4.249308   1.000000
   33       -4.116705   1.000000
   34       -4.028684   1.000000
   35       -3.992374   1.000000
   36       -3.946151   1.000000
   37       -3.894291   1.000000
   38       -3.829828   1.000000
   39       -3.811186   1.000000
   40       -3.780057   1.000000
   41       -3.764932   1.000000
   42       -3.659857   1.000000
   43       -3.500399   1.000000
   44       -3.456481   1.000000
   45       -3.422693   1.000000
   46       -3.395469   1.000000
   47       -3.104822   1.000000
   48       -3.059884   1.000000
   49       -2.890249   1.000000
   50       -2.803094   1.000000
   51       -2.655578   1.000000
   52       -2.429315   1.000000
   53       -2.244582   1.000000
   54       -2.232857   1.000000
   55       -2.113914   1.000000
   56       -2.072965   1.000000
   57       -1.848878   1.000000
   58       -1.797208   1.000000
   59       -1.717412   1.000000
   60       -1.660558   1.000000
   61       -1.565905   1.000000
   62       -1.540728   1.000000
   63       -1.465822   1.000000
   64       -1.400209   1.000003
   65       -1.241503   1.000372
   66       -1.201835   1.000963
   67       -1.104962   1.006632
   68       -1.000163   1.026181
   69       -0.937521   1.035453
   70       -0.881163   1.017368
   71       -0.877727   1.014762
   72       -0.798626   0.883428
   73       -0.773013   0.808259
   74       -0.690830   0.488024
   75       -0.679207   0.439019
   76       -0.630163   0.245745
   77       -0.578990   0.092301
   78       -0.541054   0.020023
   79       -0.486629  -0.028402
   80       -0.414107  -0.031854
   81       -0.360651  -0.020094
   82       -0.295527  -0.008238
   83       -0.227662  -0.002392
   84       -0.220075  -0.002047
   85        0.066501  -0.000001
   86        0.129132  -0.000000
   87        0.219250  -0.000000
   88        0.901664  -0.000000
   89        1.017187  -0.000000
   90        1.031877  -0.000000
   91        1.375443  -0.000000
   92        1.556499  -0.000000
   93        2.072377  -0.000000
   94        2.272981  -0.000000
   95        2.579519  -0.000000
   96        2.788024  -0.000000
 
  0.1875000E+00  0.1875000E+00  0.0000000E+00  0.3125000E-01
    1       -9.796215   1.000000
    2       -8.574848   1.000000
    3       -7.500895   1.000000
    4       -7.368280   1.000000
    5       -7.347804   1.000000
    6       -7.137049   1.000000
    7       -7.100949   1.000000
    8       -7.083275   1.000000
    9       -6.957245   1.000000
   10       -6.931708   1.000000
   11       -6.675802   1.000000
   12       -6.613297   1.000000
   13       -6.536719   1.000000
   14       -6.532548   1.000000
   15       -6.444426   1.000000
   16       -6.383785   1.000000
   17       -6.312732   1.000000
   18       -6.236971   1.000000
   19       -6.209235   1.000000
   20       -5.870979   1.000000
   21       -5.619417   1.000000
   22       -5.602104   1.000000
   23       -5.397191   1.000000
   24       -4.898931   1.000000
   25       -4.830884   1.000000
   26       -4.768563   1.000000
   27       -4.622948   1.000000
   28       -4.526108   1.000000
   29       -4.488044   1.000000
   30       -4.420937   1.000000
   31       -4.386312   1.000000
   32       -4.352073   1.000000
   33       -4.050974   1.000000
   34       -4.028734   1.000000
   35       -4.023277   1.000000
   36       -3.961399   1.000000
   37       -3.880093   1.000000
   38       -3.855588   1.000000
   39       -3.813080   1.000000
   40       -3.731739   1.000000
   41       -3.699021   1.000000
   42       -3.662418   1.000000
   43       -3.627833   1.000000
   44       -3.528770   1.000000
   45       -3.525631   1.000000
   46       -3.510670   1.000000
   47       -3.312693   1.000000
   48       -3.213726   1.000000
   49       -2.903171   1.000000
   50       -2.883558   1.000000
   51       -2.702124   1.000000
   52       -2.649713   1.000000
   53       -2.397785   1.000000
   54       -2.332054   1.000000
   55       -2.293861   1.000000
   56       -2.128536   1.000000
   57       -2.077233   1.000000
   58       -1.966152   1.000000
   59       -1.891147   1.000000
   60       -1.853002   1.000000
   61       -1.827064   1.000000
   62       -1.772208   1.000000
   63       -1.718911   1.000000
   64       -1.643064   1.000000
   65       -1.633952   1.000000
   66       -1.455988   1.000000
   67       -1.401088   1.000003
   68       -1.222205   1.000598
   69       -1.139860   1.003536
   70       -1.120042   1.005102
   71       -1.024822   1.020510
   72       -1.020772   1.021430
   73       -0.981529   1.030250
   74       -0.886848   1.021222
   75       -0.870987   1.009013
   76       -0.757139   0.754186
   77       -0.729037   0.647123
   78       -0.715853   0.593267
   79       -0.674891   0.420965
   80       -0.567673   0.067005
   81       -0.501623  -0.020487
   82       -0.435764  -0.034867
   83       -0.420830  -0.032998
   84       -0.356546  -0.019180
   85       -0.355475  -0.018944
   86       -0.224755  -0.002254
   87        0.575074  -0.000000
   88        0.940481  -0.000000
   89        0.981626  -0.000000
   90        0.998430  -0.000000
   91        1.599821  -0.000000
   92        1.606851  -0.000000
   93        2.079570  -0.000000
   94        2.309907  -0.000000
   95        2.783413  -0.000000
   96        3.591028  -0.000000
 
  0.3125000E+00  0.1875000E+00  0.0000000E+00  0.6250000E-01
    1       -9.471056   1.000000
    2       -8.265342   1.000000
    3       -7.297821   1.000000
    4       -7.188715   1.000000
    5       -7.140808   1.000000
    6       -7.069967   1.000000
    7       -6.944600   1.000000
    8       -6.855743   1.000000
    9       -6.779530   1.000000
   10       -6.686154   1.000000
   11       -6.552403   1.000000
   12       -6.478539   1.000000
   13       -6.414968   1.000000
   14       -6.358256   1.000000
   15       -6.303154   1.000000
   16       -6.181054   1.000000
   17       -6.108006   1.000000
   18       -5.995210   1.000000
   19       -5.937268   1.000000
   20       -5.758605   1.000000