   16   16    1    1
  0.5150799E+02  0.5557859E-09  0.5557859E-09  0.3080696E-08  0.5000000E-15
  1.000000000000000E-004
  CAR 
 unknown system                          
    160     52     96
 
  0.6250000E-01  0.6250000E-01  0.0000000E+00  0.1041667E-01
    1      -10.185096   1.000000
    2       -8.912045   1.000000
    3       -7.857645   1.000000
    4       -7.715736   1.000000
    5       -7.449098   1.000000
    6       -7.420586   1.000000
    7       -7.415478   1.000000
    8       -7.308390   1.000000
    9       -7.276148   1.000000
   10       -7.261758   1.000000
   11       -6.822646   1.000000
   12       -6.810954   1.000000
   13       -6.796908   1.000000
   14       -6.790966   1.000000
   15       -6.777672   1.000000
   16       -6.595299   1.000000
   17       -6.555142   1.000000
   18       -6.537280   1.000000
   19       -6.491240   1.000000
   20       -5.795313   1.000000
   21       -5.776227   1.000000
   22       -5.675003   1.000000
   23       -4.936840   1.000000
   24       -4.926986   1.000000
   25       -4.807149   1.000000
   26       -4.658880   1.000000
   27       -4.646458   1.000000
   28       -4.631935   1.000000
   29       -4.565750   1.000000
   30       -4.507244   1.000000
   31       -4.326356   1.000000
   32       -4.279021   1.000000
   33       -4.161529   1.000000
   34       -4.153990   1.000000
   35       -4.032159   1.000000
   36       -4.028563   1.000000
   37       -3.980826   1.000000
   38       -3.938114   1.000000
   39       -3.890418   1.000000
   40       -3.862588   1.000000
   41       -3.771413   1.000000
   42       -3.748668   1.000000
   43       -3.507387   1.000000
   44       -3.466214   1.000000
   45       -3.410756   1.000000
   46       -3.142462   1.000000
   47       -3.135893   1.000000
   48       -2.928869   1.000000
   49       -2.915704   1.000000
   50       -2.775823   1.000000
   51       -2.745151   1.000000
   52       -2.330942   1.000000
   53       -2.312162   1.000000
   54       -2.106232   1.000000
   55       -2.075029   1.000000
   56       -1.839585   1.000000
   57       -1.833442   1.000000
   58       -1.738676   1.000000
   59       -1.682351   1.000000
   60       -1.587950   1.000000
   61       -1.584044   1.000000
   62       -1.531550   1.000001
   63       -1.337119   1.000429
   64       -1.145325   1.016356
   65       -1.120635   1.021766
   66       -1.115074   1.023046
   67       -1.032873   1.035256
   68       -1.012207   1.031909
   69       -0.909961   0.908413
   70       -0.863506   0.771918
   71       -0.840084   0.685536
   72       -0.812865   0.575306
   73       -0.757677   0.345124
   74       -0.724335   0.220715
   75       -0.690126   0.116840
   76       -0.625063  -0.001678
   77       -0.603298  -0.020262
   78       -0.531142  -0.034252
   79       -0.380426  -0.006274
   80       -0.353179  -0.003843
   81       -0.292751  -0.001101
   82       -0.208692  -0.000136
   83       -0.196582  -0.000098
   84       -0.162047  -0.000036
   85       -0.077618  -0.000002
   86        0.041999  -0.000000
   87        0.332160  -0.000000
   88        0.363445  -0.000000
   89        1.240354  -0.000000
   90        1.498116  -0.000000
   91        1.640387  -0.000000
   92        1.684646  -0.000000
   93        1.777390  -0.000000
   94        1.787636  -0.000000
   95        2.622905  -0.000000
   96        2.636225  -0.000000
 
  0.0000000E+00  0.6250000E-01  0.0000000E+00  0.2083333E-01
    1      -10.185095   1.000000
    2       -8.912038   1.000000
    3       -7.857604   1.000000
    4       -7.715710   1.000000
    5       -7.448678   1.000000
    6       -7.424315   1.000000
    7       -7.412190   1.000000
    8       -7.306077   1.000000
    9       -7.283212   1.000000
   10       -7.256980   1.000000
   11       -6.821903   1.000000
   12       -6.808585   1.000000
   13       -6.799595   1.000000
   14       -6.789348   1.000000
   15       -6.780288   1.000000
   16       -6.594167   1.000000
   17       -6.551662   1.000000
   18       -6.542726   1.000000
   19       -6.489872   1.000000
   20       -5.796816   1.000000
   21       -5.775143   1.000000
   22       -5.674492   1.000000
   23       -4.943320   1.000000
   24       -4.920895   1.000000
   25       -4.807294   1.000000
   26       -4.661283   1.000000
   27       -4.640112   1.000000
   28       -4.633688   1.000000
   29       -4.568313   1.000000
   30       -4.507379   1.000000
   31       -4.322954   1.000000
   32       -4.281767   1.000000
   33       -4.166217   1.000000
   34       -4.149848   1.000000
   35       -4.049188   1.000000
   36       -4.007693   1.000000
   37       -3.988117   1.000000
   38       -3.932815   1.000000
   39       -3.895746   1.000000
   40       -3.856319   1.000000
   41       -3.768593   1.000000
   42       -3.752207   1.000000
   43       -3.506393   1.000000
   44       -3.467060   1.000000
   45       -3.409956   1.000000
   46       -3.182104   1.000000
   47       -3.087537   1.000000
   48       -2.941117   1.000000
   49       -2.903242   1.000000
   50       -2.814809   1.000000
   51       -2.717073   1.000000
   52       -2.330016   1.000000
   53       -2.315237   1.000000
   54       -2.105741   1.000000
   55       -2.079414   1.000000
   56       -1.858379   1.000000
   57       -1.809023   1.000000
   58       -1.732127   1.000000
   59       -1.680433   1.000000
   60       -1.595859   1.000000
   61       -1.574315   1.000000
   62       -1.544588   1.000001
   63       -1.323436   1.000599
   64       -1.166304   1.012353
   65       -1.134216   1.018716
   66       -1.069886   1.032663
   67       -1.023717   1.034328
   68       -1.008851   1.030905
   69       -0.936104   0.961803
   70       -0.897651   0.877317
   71       -0.823163   0.617909
   72       -0.807284   0.551912
   73       -0.780183   0.437537
   74       -0.715883   0.192535
   75       -0.692431   0.122958
   76       -0.626024  -0.000644
   77       -0.575881  -0.032412
   78       -0.536955  -0.034855
   79       -0.373568  -0.005571
   80       -0.364460  -0.004734
   81       -0.294225  -0.001138
   82       -0.218980  -0.000180
   83       -0.183085  -0.000067
   84       -0.158246  -0.000032
   85       -0.073381  -0.000002
   86        0.039330  -0.000000
   87        0.307291  -0.000000
   88        0.387035  -0.000000
   89        1.243105  -0.000000
   90        1.495361  -0.000000
   91        1.652152  -0.000000
   92        1.671701  -0.000000
   93        1.743812  -0.000000
   94        1.819357  -0.000000
   95        2.614466  -0.000000
   96        2.649058  -0.000000
 
  0.1875000E+00  0.6250000E-01  0.0000000E+00  0.2083333E-01
    1       -9.980599   1.000000
    2       -8.710501   1.000000
    3       -7.653918   1.000000
    4       -7.520004   1.000000
    5       -7.428752   1.000000
    6       -7.349207   1.000000
    7       -7.231709   1.000000
    8       -7.215543   1.000000
    9       -7.162197   1.000000
   10       -7.092772   1.000000
   11       -6.739559   1.000000
   12       -6.712951   1.000000
   13       -6.704950   1.000000
   14       -6.688783   1.000000
   15       -6.637165   1.000000
   16       -6.486442   1.000000
   17       -6.433647   1.000000
   18       -6.381205   1.000000
   19       -6.313439   1.000000
   20       -5.738335   1.000000
   21       -5.713219   1.000000
   22       -5.621534   1.000000
   23       -4.971706   1.000000
   24       -4.917304   1.000000
   25       -4.842522   1.000000
   26       -4.711323   1.000000
   27       -4.636532   1.000000
   28       -4.575645   1.000000
   29       -4.563540   1.000000
   30       -4.504904   1.000000
   31       -4.432869   1.000000
   32       -4.171387   1.000000
   33       -4.141210   1.000000
   34       -4.127426   1.000000
   35       -4.067731   1.000000
   36       -4.018400   1.000000
   37       -4.000304   1.000000
   38       -3.972517   1.000000
   39       -3.875905   1.000000
   40       -3.847516   1.000000
   41       -3.819545   1.000000
   42       -3.671165   1.000000
   43       -3.617843   1.000000
   44       -3.608706   1.000000
   45       -3.549254   1.000000
   46       -3.457716   1.000000
   47       -3.279445   1.000000
   48       -3.124319   1.000000
   49       -2.948161   1.000000
   50       -2.819972   1.000000
   51       -2.689038   1.000000
   52       -2.440491   1.000000
   53       -2.417702   1.000000
   54       -2.301929   1.000000
   55       -2.147330   1.000000
   56       -2.037001   1.000000
   57       -1.998201   1.000000
   58       -1.903520   1.000000
   59       -1.863340   1.000000
   60       -1.829721   1.000000
   61       -1.788891   1.000000
   62       -1.736126   1.000000
   63       -1.658760   1.000000
   64       -1.577857   1.000000
   65       -1.527309   1.000001
   66       -1.450861   1.000018
   67       -1.285226   1.001436
   68       -1.204822   1.006798
   69       -1.111513   1.023870
   70       -1.077777   1.031251
   71       -1.063840   1.033597
   72       -0.992962   1.024043
   73       -0.924437   0.940087
   74       -0.910551   0.909808
   75       -0.884250   0.839195
   76       -0.826007   0.629509
   77       -0.772527   0.405614
   78       -0.731734   0.246607
   79       -0.698240   0.138959
   80       -0.579334  -0.031460
   81       -0.560251  -0.035028
   82       -0.441762  -0.015766
   83       -0.371452  -0.005367
   84       -0.331744  -0.002529
   85       -0.292517  -0.001096
   86        0.199744  -0.000000
   87        0.241024  -0.000000
   88        0.836238  -0.000000
   89        0.853159  -0.000000
   90        1.105861  -0.000000
   91        1.286108  -0.000000
   92        1.612404  -0.000000
   93        2.172609  -0.000000
   94        2.512294  -0.000000
   95        3.044702  -0.000000
   96        3.387750  -0.000000
 
  0.1250000E+00  0.1875000E+00  0.0000000E+00  0.2083333E-01
    1       -9.980603   1.000000
    2       -8.710529   1.000000
    3       -7.654090   1.000000
    4       -7.520171   1.000000
    5       -7.428143   1.000000
    6       -7.349547   1.000000
    7       -7.232434   1.000000
    8       -7.215521   1.000000
    9       -7.159398   1.000000
   10       -7.095031   1.000000
   11       -6.739373   1.000000
   12       -6.716608   1.000000
   13       -6.698841   1.000000
   14       -6.694266   1.000000
   15       -6.632672   1.000000
   16       -6.489268   1.000000
   17       -6.433585   1.000000
   18       -6.377627   1.000000
   19       -6.315756   1.000000
   20       -5.731782   1.000000
   21       -5.718552   1.000000
   22       -5.622990   1.000000
   23       -4.967362   1.000000
   24       -4.920077   1.000000
   25       -4.844459   1.000000
   26       -4.711689   1.000000
   27       -4.624704   1.000000
   28       -4.580087   1.000000
   29       -4.570269   1.000000
   30       -4.503762   1.000000
   31       -4.434649   1.000000
   32       -4.164601   1.000000
   33       -4.138467   1.000000
   34       -4.125648   1.000000
   35       -4.077410   1.000000
   36       -4.013772   1.000000
   37       -3.999240   1.000000
   38       -3.968733   1.000000
   39       -3.890173   1.000000
   40       -3.845947   1.000000
   41       -3.823329   1.000000
   42       -3.672158   1.000000
   43       -3.610823   1.000000
   44       -3.601839   1.000000
   45       -3.563067   1.000000
   46       -3.443065   1.000000
   47       -3.298604   1.000000
   48       -3.113105   1.000000
   49       -2.950780   1.000000
   50       -2.804888   1.000000
   51       -2.700460   1.000000
   52       -2.445353   1.000000
   53       -2.408359   1.000000
   54       -2.290932   1.000000
   55       -2.159514   1.000000
   56       -2.043510   1.000000
   57       -1.997005   1.000000
   58       -1.900137   1.000000
   59       -1.860485   1.000000
   60       -1.836803   1.000000
   61       -1.785827   1.000000
   62       -1.750635   1.000000
   63       -1.638382   1.000000
   64       -1.587367   1.000000
   65       -1.535567   1.000001
   66       -1.444244   1.000022
   67       -1.282166   1.001535
   68       -1.215624   1.005648
   69       -1.133249   1.018928
   70       -1.072499   1.032218
   71       -1.038093   1.035445
   72       -0.983945   1.018406
   73       -0.940776   0.969569
   74       -0.898326   0.879121
   75       -0.872364   0.801816
   76       -0.793537   0.493852
   77       -0.777445   0.426077
   78       -0.757053   0.342636
   79       -0.712151   0.180598
   80       -0.600802  -0.021843
   81       -0.523425  -0.033196
   82       -0.425607  -0.012694
   83       -0.407989  -0.009807
   84       -0.332343  -0.002560
   85       -0.294638  -0.001149
   86        0.194444  -0.000000
   87        0.252375  -0.000000
   88        0.827519  -0.000000
   89        0.855694  -0.000000
   90        1.107768  -0.000000
   91        1.292741  -0.000000
   92        1.610613  -0.000000
   93        2.171736  -0.000000
   94        2.512202  -0.000000
   95        3.044880  -0.000000
   96        3.387154  -0.000000
 
 -0.6250000E-01  0.1250000E+00  0.0000000E+00  0.2083333E-01
    1       -9.980593   1.000000
    2       -8.710464   1.000000
    3       -7.653706   1.000000
    4       -7.519875   1.000000
    5       -7.428565   1.000000
    6       -7.350292   1.000000
    7       -7.231104   1.000000
    8       -7.212945   1.000000
    9       -7.167725   1.000000
   10       -7.089578   1.000000
   11       -6.739123   1.000000
   12       -6.711366   1.000000
   13       -6.699388   1.000000
   14       -6.694494   1.000000
   15       -6.640138   1.000000
   16       -6.485341   1.000000
   17       -6.436242   1.000000
   18       -6.378596   1.000000
   19       -6.313593   1.000000
   20       -5.741610   1.000000
   21       -5.712321   1.000000
   22       -5.618731   1.000000
   23       -4.981535   1.000000
   24       -4.906070   1.000000
   25       -4.842796   1.000000
   26       -4.718780   1.000000
   27       -4.638506   1.000000
   28       -4.578312   1.000000
   29       -4.544586   1.000000
   30       -4.522558   1.000000
   31       -4.422714   1.000000
   32       -4.172864   1.000000
   33       -4.140435   1.000000
   34       -4.136355   1.000000
   35       -4.063365   1.000000
   36       -4.026286   1.000000
   37       -3.983499   1.000000
   38       -3.977799   1.000000
   39       -3.883188   1.000000
   40       -3.841993   1.000000
   41       -3.815367   1.000000
   42       -3.667733   1.000000
   43       -3.622477   1.000000
   44       -3.604370   1.000000
   45       -3.544461   1.000000
   46       -3.465281   1.000000
   47       -3.277617   1.000000
   48       -3.125411   1.000000
   49       -2.951564   1.000000
   50       -2.828802   1.000000
   51       -2.680206   1.000000
   52       -2.450290   1.000000
   53       -2.407047   1.000000
   54       -2.318777   1.000000
   55       -2.140260   1.000000
   56       -2.026038   1.000000
   57       -1.978274   1.000000
   58       -1.936159   1.000000
   59       -1.861061   1.000000
   60       -1.835522   1.000000
   61       -1.764400   1.000000
   62       -1.737076   1.000000
   63       -1.651681   1.000000
   64       -1.595961   1.000000
   65       -1.513532   1.000002
   66       -1.443711   1.000022
   67       -1.284217   1.001468
   68       -1.223773   1.004886
   69       -1.154336   1.014557
   70       -1.070683   1.032530
   71       -1.056613   1.034504
   72       -0.989806   1.022224
   73       -0.937187   0.963650
   74       -0.909589   0.907529
   75       -0.859375   0.757419
   76       -0.810657   0.566072
   77       -0.774919   0.415548
   78       -0.723187   0.216794
   79       -0.697941   0.138115
   80       -0.571604  -0.033393
   81       -0.555174  -0.035353
   82       -0.451035  -0.017694
   83       -0.377204  -0.005935
   84       -0.325609  -0.002233
   85       -0.304134  -0.001417
   86        0.193583  -0.000000
   87        0.244396  -0.000000
   88        0.829739  -0.000000
   89        0.859917  -0.000000
   90        1.106707  -0.000000
   91        1.285460  -0.000000
   92        1.611345  -0.000000
   93        2.172660  -0.000000
   94        2.512333  -0.000000
   95        3.044890  -0.000000
   96        3.388475  -0.000000
 
  0.3125000E+00  0.6250000E-01  0.0000000E+00  0.2083333E-01
    1       -9.525869   1.000000
    2       -8.274461   1.000000
    3       -7.529267   1.000000
    4       -7.226493   1.000000
    5       -7.111127   1.000000
    6       -7.098691   1.000000
    7       -7.086867   1.000000
    8       -6.889239   1.000000
    9       -6.866024   1.000000
   10       -6.780228   1.000000
   11       -6.666760   1.000000
   12       -6.488840   1.000000
   13       -6.475484   1.000000
   14       -6.429105   1.000000
   15       -6.335447   1.000000
   16       -6.283516   1.000000
   17       -6.121727   1.000000
   18       -6.039160   1.000000
   19       -5.926138   1.000000
   20       -5.619182   1.000000
   21       -5.566889   1.000000
   22       -5.509236   1.000000
   23       -5.091633   1.000000
   24       -5.025564   1.000000
   25       -4.955641   1.000000
   26       -4.826132   1.000000
   27       -4.797790   1.000000
   28       -4.683469   1.000000
   29       -4.507343   1.000000
   30       -4.465299   1.000000
   31       -4.403201   1.000000
   32       -4.287480   1.000000
   33       -4.246294   1.000000
   34       -4.210380   1.000000
   35       -4.135478   1.000000
   36       -4.073580   1.000000
   37       -4.008666   1.000000
   38       -3.932244   1.000000
   39       -3.911303   1.000000
   40       -3.856097   1.000000
   41       -3.834562   1.000000
   42       -3.781987   1.000000
   43       -3.758138   1.000000
   44       -3.716493   1.000000
   45       -3.604634   1.000000
   46       -3.528147   1.000000
   47       -3.446697   1.000000
   48       -3.290473   1.000000
   49       -3.056310   1.000000
   50       -2.990182   1.000000
   51       -2.878277   1.000000
   52       -2.798300   1.000000
   53       -2.729575   1.000000
   54       -2.678354   1.000000
   55       -2.609247   1.000000
   56       -2.575557   1.000000
   57       -2.543141   1.000000
   58       -2.500357   1.000000
   59       -2.464859   1.000000
   60       -2.372467   1.000000
   61       -2.206622   1.000000
   62       -2.100847   1.000000
   63       -2.078614   1.000000
   64       -1.930387   1.000000
   65       -1.879169   1.000000
   66       -1.821122   1.000000
   67       -1.694500   1.000000
   68       -1.598288   1.000000
   69       -1.535643   1.000001
   70       -1.512121   1.000002
   71       -1.460992   1.000013
   72       -1.373406   1.000169
   73       -1.270385   1.001971
   74       -1.212051   1.006010
   75       -1.156350   1.014171
   76       -1.092045   1.028303
   77       -1.043925   1.035398
   78       -0.994193   1.024709
   79       -0.913004   0.915510
   80       -0.838386   0.678918
   81       -0.778779   0.431657
   82       -0.713461   0.184754
   83       -0.618034  -0.008672
   84       -0.595436  -0.024894
   85       -0.357183  -0.004142
   86        0.303893  -0.000000
   87        0.381982  -0.000000
   88        0.565856  -0.000000
   89        0.923092  -0.000000
   90        1.743843  -0.000000
   91        1.886007  -0.000000
   92        1.932413  -0.000000
   93        2.279456  -0.000000
   94        2.682466  -0.000000
   95        3.206584  -0.000000
   96        3.930007  -0.000000
 
  0.2500000E+00  0.3125000E+00  0.0000000E+00  0.2083333E-01
    1       -9.525901   1.000000
    2       -8.274738   1.000000
    3       -7.528264   1.000000
    4       -7.230811   1.000000
    5       -7.108607   1.000000
    6       -7.099419   1.000000
    7       -7.085731   1.000000
    8       -6.891050   1.000000
    9       -6.860137   1.000000
   10       -6.785607   1.000000
   11       -6.664902   1.000000
   12       -6.490690   1.000000
   13       -6.472294   1.000000
   14       -6.437544   1.000000
   15       -6.328333   1.000000
   16       -6.283183   1.000000
   17       -6.122293   1.000000
   18       -6.032233   1.000000
   19       -5.932838   1.000000
   20       -5.598728   1.000000
   21       -5.581637   1.000000
   22       -5.515132   1.000000
   23       -5.093458   1.000000
   24       -5.033125   1.000000
   25       -4.940290   1.000000
   26       -4.826220   1.000000
   27       -4.775656   1.000000
   28       -4.714382   1.000000
   29       -4.498259   1.000000
   30       -4.469566   1.000000
   31       -4.409626   1.000000
   32       -4.272223   1.000000
   33       -4.246280   1.000000
   34       -4.222227   1.000000
   35       -4.112325   1.000000
   36       -4.077274   1.000000
   37       -4.016038   1.000000
   38       -3.930589   1.000000
   39       -3.912769   1.000000
   40       -3.857196   1.000000
   41       -3.811955   1.000000
   42       -3.795884   1.000000
   43       -3.774942   1.000000
   44       -3.718148   1.000000
   45       -3.652343   1.000000
   46       -3.498551   1.000000
   47       -3.437495   1.000000
   48       -3.285854   1.000000
   49       -3.035274   1.000000
   50       -2.995049   1.000000
   51       -2.875137   1.000000
   52       -2.789473   1.000000
   53       -2.735484   1.000000
   54       -2.707627   1.000000
   55       -2.601641   1.000000
   56       -2.570253   1.000000
   57       -2.532574   1.000000
   58       -2.501544   1.000000
   59       -2.466132   1.000000
   60       -2.365390   1.000000
   61       -2.205776   1.000000
   62       -2.140220   1.000000
   63       -2.071325   1.000000
   64       -1.933058   1.000000
   65       -1.872788   1.000000
   66       -1.801680   1.000000
   67       -1.687293   1.000000
   68       -1.595629   1.000000
   69       -1.577239   1.000000
   70       -1.492501   1.000005
   71       -1.450931   1.000018
   72       -1.406932   1.000067
   73       -1.263749   1.002261
   74       -1.209734   1.006255
   75       -1.129330   1.019796
   76       -1.087816   1.029217
   77       -1.047567   1.035245
   78       -1.001395   1.028140
   79       -0.890106   0.856392
   80       -0.841013   0.689141
   81       -0.785024   0.457887
   82       -0.757799   0.345609
   83       -0.637307   0.012976
   84       -0.512233  -0.031257
   85       -0.406419  -0.009574
   86        0.316937  -0.000000
   87        0.377338  -0.000000
   88        0.573498  -0.000000
   89        0.918409  -0.000000
   90        1.741269  -0.000000
   91        1.898938  -0.000000
   92        1.929327  -0.000000
   93        2.274581  -0.000000
   94        2.680898  -0.000000
   95        3.205365  -0.000000
   96        3.930828  -0.000000
 
 -0.6250000E-01  0.2500000E+00  0.0000000E+00  0.2083333E-01
    1       -9.525857   1.000000
    2       -8.274393   1.000000
    3       -7.529266   1.000000
    4       -7.226164   1.000000
    5       -7.111580   1.000000
    6       -7.100097   1.000000
    7       -7.084998   1.000000
    8       -6.889030   1.000000
    9       -6.867012   1.000000
   10       -6.779767   1.000000
   11       -6.666470   1.000000
   12       -6.490345   1.000000
   13       -6.471050   1.000000
   14       -6.430563   1.000000
   15       -6.332640   1.000000
   16       -6.290268   1.000000
   17       -6.120301   1.000000
   18       -6.037480   1.000000
   19       -5.926721   1.000000
   20       -5.619274   1.000000
   21       -5.570579   1.000000
   22       -5.504959   1.000000
   23       -5.096808   1.000000
   24       -5.028644   1.000000
   25       -4.947105   1.000000
   26       -4.828255   1.000000
   27       -4.802874   1.000000
   28       -4.683269   1.000000
   29       -4.520712   1.000000
   30       -4.444749   1.000000
   31       -4.402771   1.000000
   32       -4.284980   1.000000
   33       -4.253189   1.000000
   34       -4.211055   1.000000
   35       -4.126690   1.000000
   36       -4.071910   1.000000
   37       -4.015276   1.000000
   38       -3.943264   1.000000
   39       -3.892484   1.000000
   40       -3.852438   1.000000
   41       -3.813693   1.000000
   42       -3.792003   1.000000
   43       -3.775232   1.000000
   44       -3.732934   1.000000
   45       -3.613633   1.000000
   46       -3.499435   1.000000
   47       -3.452588   1.000000
   48       -3.289536   1.000000
   49       -3.061985   1.000000
   50       -2.989848   1.000000
   51       -2.881216   1.000000
   52       -2.789151   1.000000
   53       -2.731535   1.000000
   54       -2.679482   1.000000
   55       -2.596570   1.000000
   56       -2.588366   1.000000
   57       -2.545844   1.000000
   58       -2.503894   1.000000
   59       -2.469822   1.000000
   60       -2.372411   1.000000
   61       -2.206940   1.000000
   62       -2.114061   1.000000
   63       -2.068751   1.000000
   64       -1.906977   1.000000
   65       -1.890900   1.000000
   66       -1.831490   1.000000
   67       -1.670724   1.000000
   68       -1.592174   1.000000
   69       -1.563976   1.000000
   70       -1.506458   1.000003
   71       -1.425595   1.000039
   72       -1.381259   1.000136
   73       -1.282549   1.001522
   74       -1.219128   1.005310
   75       -1.148533   1.015703
   76       -1.101819   1.026107
   77       -1.041156   1.035452
   78       -0.990760   1.022791
   79       -0.911488   0.912003
   80       -0.842865   0.696284
   81       -0.788783   0.473750
   82       -0.707178   0.165185
   83       -0.627105   0.000543
   84       -0.585431  -0.029403
   85       -0.358289  -0.004228
   86        0.302725  -0.000000
   87        0.383220  -0.000000
   88        0.564874  -0.000000
   89        0.921402  -0.000000
   90        1.743324  -0.000000
   91        1.892178  -0.000000
   92        1.927921  -0.000000
   93        2.279730  -0.000000
   94        2.681503  -0.000000
   95        3.207117  -0.000000
   96        3.931183  -0.000000
 
  0.4375000E+00  0.6250000E-01  0.0000000E+00  0.2083333E-01
    1       -8.885268   1.000000
    2       -7.897436   1.000000
    3       -7.712445   1.000000
    4       -7.132805   1.000000
    5       -6.777024   1.000000
    6       -6.756791   1.000000
    7       -6.598677   1.000000
    8       -6.553804   1.000000
    9       -6.540501   1.000000
   10       -6.517156   1.000000
   11       -6.466146   1.000000
   12       -6.220778   1.000000
   13       -6.167810   1.000000
   14       -6.062504   1.000000
   15       -6.035412   1.000000
   16       -5.973814   1.000000
   17       -5.822114   1.000000
   18       -5.679481   1.000000
   19       -5.519743   1.000000
   20       -5.426402   1.000000
   21       -5.385125   1.000000
   22       -5.341621   1.000000
   23       -5.292203   1.000000
   24       -5.180891   1.000000
   25       -5.060943   1.000000
   26       -5.020026   1.000000
   27       -4.946894   1.000000
   28       -4.760209   1.000000
   29       -4.695302   1.000000
   30       -4.658767   1.000000
   31       -4.642953   1.000000
   32       -4.500862   1.000000
   33       -4.431889   1.000000
   34       -4.387781   1.000000
   35       -4.334182   1.000000
   36       -4.231838   1.000000
   37       -4.137565   1.000000
   38       -4.073503   1.000000
   39       -3.979911   1.000000
   40       -3.891177   1.000000
   41       -3.792067   1.000000
   42       -3.768481   1.000000
   43       -3.704778   1.000000
   44       -3.655181   1.000000
   45       -3.642474   1.000000
   46       -3.572869   1.000000
   47       -3.551859   1.000000
   48       -3.495294   1.000000
   49       -3.392397   1.000000
   50       -3.334967   1.000000
   51       -3.298888   1.000000
   52       -3.258732   1.000000
   53       -3.204774   1.000000
   54       -3.006885   1.000000
   55       -2.982190   1.000000
   56       -2.935054   1.000000
   57       -2.851800   1.000000
   58       -2.806534   1.000000
   59       -2.755953   1.000000
   60       -2.549262   1.000000
   61       -2.501186   1.000000
   62       -2.395870   1.000000
   63       -2.297982   1.000000
   64       -2.258916   1.000000
   65       -2.199203   1.000000
   66       -2.160550   1.000000
   67       -2.044590   1.000000
   68       -2.022811   1.000000
   69       -1.950822   1.000000
   70       -1.865284   1.000000
   71       -1.806408   1.000000
   72       -1.752859   1.000000
   73       -1.677839   1.000000
   74       -1.538693   1.000001
   75       -1.398931   1.000084
   76       -1.304307   1.000938
   77       -1.223672   1.004895
   78       -1.092484   1.028206
   79       -0.935459   0.960690
   80       -0.875749   0.812791
   81       -0.781180   0.441719
   82       -0.701115   0.147184
   83       -0.619855  -0.006955
   84       -0.587006  -0.028789
   85       -0.346626  -0.003392
   86       -0.175495  -0.000054
   87        0.720936  -0.000000
   88        1.005198  -0.000000
   89        1.055372  -0.000000
   90        1.844664  -0.000000
   91        1.973580  -0.000000
   92        2.065769  -0.000000
   93        2.424199  -0.000000
   94        3.047636  -0.000000
   95        3.549781  -0.000000
   96        4.018405  -0.000000
 
  0.3750000E+00  0.4375000E+00  0.0000000E+00  0.2083333E-01
    1       -8.885455   1.000000
    2       -7.898738   1.000000
    3       -7.710710   1.000000
    4       -7.134405   1.000000
    5       -6.779372   1.000000
    6       -6.759427   1.000000
    7       -6.599087   1.000000
    8       -6.551879   1.000000
    9       -6.532478   1.000000
   10       -6.519186   1.000000
   11       -6.469674   1.000000
   12       -6.220476   1.000000
   13       -6.162996   1.000000
   14       -6.064851   1.000000
   15       -6.047872   1.000000
   16       -5.966719   1.000000
   17       -5.815763   1.000000
   18       -5.651710   1.000000
   19       -5.543526   1.000000
   20       -5.430966   1.000000