       N       E                     dE             d eps       ncg     rms          rms(c)
DAV:   1     0.978550136635E+03    0.97855E+03   -0.55497E+04  9984   0.101E+03
DAV:   2    -0.392829986589E+02   -0.10178E+04   -0.98633E+03 14592   0.248E+02
DAV:   3    -0.974885701206E+02   -0.58206E+02   -0.56399E+02 12432   0.597E+01
DAV:   4    -0.987204720930E+02   -0.12319E+01   -0.12257E+01 14304   0.995E+00
DAV:   5    -0.987524024148E+02   -0.31930E-01   -0.31876E-01 15168   0.125E+00    0.418E+01
DAV:   6    -0.947563339141E+02    0.39961E+01   -0.29991E+01 12240   0.208E+01    0.295E+01
DAV:   7    -0.120306143981E+03   -0.25550E+02   -0.18052E+02 13728   0.594E+01    0.442E+01
DAV:   8    -0.964888642411E+02    0.23817E+02   -0.58663E+01 15216   0.315E+01    0.186E+01
DAV:   9    -0.104636228786E+03   -0.81474E+01   -0.86585E+01 12864   0.366E+01    0.301E+01
DAV:  10    -0.959882735482E+02    0.86480E+01   -0.64065E+01 14520   0.357E+01    0.177E+01
DAV:  11    -0.927216352015E+02    0.32666E+01   -0.15401E+01 12816   0.127E+01    0.574E+00
DAV:  12    -0.928460510606E+02   -0.12442E+00   -0.36989E+00 12816   0.727E+00    0.717E+00
DAV:  13    -0.925679998190E+02    0.27805E+00   -0.25113E+00 12408   0.496E+00    0.385E+00
DAV:  14    -0.925045909544E+02    0.63409E-01   -0.90890E-01 13752   0.320E+00    0.230E+00
DAV:  15    -0.925133378384E+02   -0.87469E-02   -0.26039E-01 14232   0.192E+00    0.237E+00
DAV:  16    -0.924980809859E+02    0.15257E-01   -0.27170E-02 13488   0.635E-01    0.189E+00
DAV:  17    -0.924771805178E+02    0.20900E-01   -0.70301E-02 12048   0.962E-01    0.996E-01
DAV:  18    -0.924688928792E+02    0.82876E-02   -0.21808E-02 14280   0.631E-01    0.541E-01
DAV:  19    -0.924690080452E+02   -0.11517E-03   -0.64497E-03 12168   0.295E-01    0.533E-01
DAV:  20    -0.924684551150E+02    0.55293E-03   -0.62072E-04 12528   0.104E-01    0.468E-01
DAV:  21    -0.924669947193E+02    0.14604E-02   -0.54931E-03 12096   0.236E-01    0.166E-01
DAV:  22    -0.924668610028E+02    0.13372E-03   -0.19103E-03 12696   0.152E-01    0.907E-02
DAV:  23    -0.924668448032E+02    0.16200E-04   -0.15048E-04 11424   0.459E-02    0.612E-02
DAV:  24    -0.924668461630E+02   -0.13598E-05   -0.52471E-05  6768   0.271E-02
   1 F= -.92466789E+02 E0= -.92459357E+02  d E =-.222971E-01
