<?xml version="1.0" encoding="ISO-8859-1"?>
<modeling>
 <generator>
  <i name="program" type="string">vasp </i>
  <i name="version" type="string">5.4.4.18Apr17-6-g9f103f2a35  </i>
  <i name="subversion" type="string">(build Apr 28 2017 10:53:45) complex            parallel </i>
  <i name="platform" type="string">LinuxIFC </i>
  <i name="date" type="string">2020 02 17 </i>
  <i name="time" type="string">09:19:50 </i>
 </generator>
 <incar>
  <i type="string" name="PREC">normal</i>
  <i type="int" name="ISPIN">     1</i>
  <i type="int" name="IBRION">     2</i>
  <i name="EDIFF">      0.00001000</i>
  <i name="EDIFFG">     -0.05000000</i>
  <i type="int" name="NSW">     0</i>
  <i name="ENCUT">    350.00000000</i>
  <i type="logical" name="LWAVE"> F  </i>
  <i type="logical" name="LCHARG"> F  </i>
  <v type="int" name="KPOINT_BSE">    -1     0     0     0</v>
  <i type="string" name="GGA"> PE</i>
  <i type="int" name="IDIPOL">     3</i>
 </incar>
 <structure name="primitive_cell" >
  <crystal>
   <varray name="basis" >
    <v>       5.55785930       0.00000000       0.00000000 </v>
    <v>       2.77892965       4.81324734       0.00000000 </v>
    <v>       0.00000000       0.00000000      30.80695967 </v>
   </varray>
   <i name="volume">    824.12780743 </i>
   <varray name="rec_basis" >
    <v>       0.17992539      -0.10387997       0.00000000 </v>
    <v>       0.00000000       0.20775994       0.00000000 </v>
    <v>       0.00000000       0.00000000       0.03246020 </v>
   </varray>
  </crystal>
  <varray name="positions" >
   <v>       0.00000000       0.00000000       0.38952237 </v>
   <v>       0.00000000      -0.50000000       0.38952237 </v>
   <v>      -0.50000000      -0.50000000       0.38952237 </v>
   <v>      -0.50000000       0.00000000       0.38952237 </v>
   <v>       0.16666667       0.16666667       0.46468540 </v>
   <v>       0.16666667      -0.33333333       0.46468540 </v>
   <v>      -0.33333333       0.16666667       0.46468540 </v>
   <v>      -0.33333333      -0.33333333       0.46468540 </v>
   <v>      -0.16666667      -0.16666667      -0.46079704 </v>
   <v>      -0.16666667       0.33333333      -0.46079704 </v>
   <v>       0.33333333      -0.16666667      -0.46079704 </v>
   <v>       0.33333333       0.33333333      -0.46079704 </v>
   <v>       0.00000000       0.00000000      -0.38513957 </v>
   <v>      -0.50000000       0.00000000      -0.38513957 </v>
   <v>       0.00000000      -0.50000000      -0.38513957 </v>
   <v>      -0.50000000      -0.50000000      -0.38513957 </v>
  </varray>
 </structure>
 <varray name="primitive_index" >
  <v type="int" >        1 </v>
  <v type="int" >        3 </v>
  <v type="int" >        4 </v>
  <v type="int" >        2 </v>
  <v type="int" >        5 </v>
  <v type="int" >        7 </v>
  <v type="int" >        6 </v>
  <v type="int" >        8 </v>
  <v type="int" >       16 </v>
  <v type="int" >        9 </v>
  <v type="int" >       11 </v>
  <v type="int" >       10 </v>
  <v type="int" >       12 </v>
  <v type="int" >       13 </v>
  <v type="int" >       14 </v>
  <v type="int" >       15 </v>
 </varray>
 <kpoints>
  <generation param="Monkhorst-Pack">
   <v type="int" name="divisions">       8        8        1 </v>
   <v name="usershift">      0.00000000       0.00000000       0.00000000 </v>
   <v name="genvec1">      0.12500000       0.00000000       0.00000000 </v>
   <v name="genvec2">      0.00000000       0.12500000       0.00000000 </v>
   <v name="genvec3">      0.00000000       0.00000000       1.00000000 </v>
   <v name="shift">      0.50000000       0.50000000       0.00000000 </v>
  </generation>
  <varray name="kpointlist" >
   <v>       0.06250000       0.06250000       0.00000000 </v>
   <v>       0.00000000       0.06250000       0.00000000 </v>
   <v>       0.18750000       0.06250000       0.00000000 </v>
   <v>       0.12500000       0.18750000       0.00000000 </v>
   <v>      -0.06250000       0.12500000       0.00000000 </v>
   <v>       0.31250000       0.06250000       0.00000000 </v>
   <v>       0.25000000       0.31250000       0.00000000 </v>
   <v>      -0.06250000       0.25000000       0.00000000 </v>
   <v>       0.43750000       0.06250000       0.00000000 </v>
   <v>       0.37500000       0.43750000       0.00000000 </v>
   <v>      -0.06250000       0.37500000       0.00000000 </v>
   <v>      -0.43750000       0.06250000       0.00000000 </v>
   <v>       0.50000000      -0.43750000       0.00000000 </v>
   <v>      -0.06250000       0.50000000       0.00000000 </v>
   <v>      -0.31250000       0.06250000       0.00000000 </v>
   <v>      -0.37500000      -0.31250000       0.00000000 </v>
   <v>      -0.06250000      -0.37500000       0.00000000 </v>
   <v>      -0.18750000       0.06250000       0.00000000 </v>
   <v>      -0.25000000      -0.18750000       0.00000000 </v>
   <v>      -0.06250000      -0.25000000       0.00000000 </v>
   <v>      -0.06250000       0.06250000       0.00000000 </v>
   <v>      -0.12500000      -0.06250000       0.00000000 </v>
   <v>       0.18750000       0.18750000       0.00000000 </v>
   <v>       0.00000000       0.18750000       0.00000000 </v>
   <v>       0.31250000       0.18750000       0.00000000 </v>
   <v>       0.12500000       0.31250000       0.00000000 </v>
   <v>      -0.18750000       0.12500000       0.00000000 </v>
   <v>       0.43750000       0.18750000       0.00000000 </v>
   <v>       0.25000000       0.43750000       0.00000000 </v>
   <v>      -0.18750000       0.25000000       0.00000000 </v>
   <v>      -0.43750000       0.18750000       0.00000000 </v>
   <v>       0.37500000      -0.43750000       0.00000000 </v>
   <v>      -0.18750000       0.37500000       0.00000000 </v>
   <v>      -0.31250000       0.18750000       0.00000000 </v>
   <v>       0.50000000      -0.31250000       0.00000000 </v>
   <v>      -0.18750000       0.50000000       0.00000000 </v>
   <v>      -0.18750000       0.18750000       0.00000000 </v>
   <v>      -0.37500000      -0.18750000       0.00000000 </v>
   <v>       0.31250000       0.31250000       0.00000000 </v>
   <v>       0.00000000       0.31250000       0.00000000 </v>
   <v>       0.43750000       0.31250000       0.00000000 </v>
   <v>       0.12500000       0.43750000       0.00000000 </v>
   <v>      -0.31250000       0.12500000       0.00000000 </v>
   <v>      -0.43750000       0.31250000       0.00000000 </v>
   <v>       0.25000000      -0.43750000       0.00000000 </v>
   <v>      -0.31250000       0.25000000       0.00000000 </v>
   <v>      -0.31250000       0.31250000       0.00000000 </v>
   <v>       0.37500000      -0.31250000       0.00000000 </v>
   <v>       0.43750000       0.43750000       0.00000000 </v>
   <v>       0.00000000       0.43750000       0.00000000 </v>
   <v>      -0.43750000       0.43750000       0.00000000 </v>
   <v>       0.12500000      -0.43750000       0.00000000 </v>
  </varray>
  <varray name="weights" >
   <v>       0.01041667 </v>
   <v>       0.02083333 </v>
   <v>       0.02083333 </v>
   <v>       0.02083333 </v>
   <v>       0.02083333 </v>
   <v>       0.02083333 </v>
   <v>       0.02083333 </v>
   <v>       0.02083333 </v>
   <v>       0.02083333 </v>
   <v>       0.02083333 </v>
   <v>       0.02083333 </v>
   <v>       0.02083333 </v>
   <v>       0.02083333 </v>
   <v>       0.02083333 </v>
   <v>       0.02083333 </v>
   <v>       0.02083333 </v>
   <v>       0.02083333 </v>
   <v>       0.02083333 </v>
   <v>       0.02083333 </v>
   <v>       0.02083333 </v>
   <v>       0.01041667 </v>
   <v>       0.02083333 </v>
   <v>       0.01041667 </v>
   <v>       0.02083333 </v>
   <v>       0.02083333 </v>
   <v>       0.02083333 </v>
   <v>       0.02083333 </v>
   <v>       0.02083333 </v>
   <v>       0.02083333 </v>
   <v>       0.02083333 </v>
   <v>       0.02083333 </v>
   <v>       0.02083333 </v>
   <v>       0.02083333 </v>
   <v>       0.02083333 </v>
   <v>       0.02083333 </v>
   <v>       0.02083333 </v>
   <v>       0.01041667 </v>
   <v>       0.02083333 </v>
   <v>       0.01041667 </v>
   <v>       0.02083333 </v>
   <v>       0.02083333 </v>
   <v>       0.02083333 </v>
   <v>       0.02083333 </v>
   <v>       0.02083333 </v>
   <v>       0.02083333 </v>
   <v>       0.02083333 </v>
   <v>       0.01041667 </v>
   <v>       0.02083333 </v>
   <v>       0.01041667 </v>
   <v>       0.02083333 </v>
   <v>       0.01041667 </v>
   <v>       0.02083333 </v>
  </varray>
 </kpoints>
 <parameters>
  <separator name="general" >
   <i type="string" name="SYSTEM">unknown system</i>
   <i type="logical" name="LCOMPAT"> F  </i>
  </separator>
  <separator name="electronic" >
   <i type="string" name="PREC">normal</i>
   <i name="ENMAX">    350.00000000</i>
   <i name="ENAUG">    358.96600000</i>
   <i name="EDIFF">      0.00001000</i>
   <i type="int" name="IALGO">    38</i>
   <i type="int" name="IWAVPR">    10</i>
   <i type="int" name="NBANDS">    96</i>
   <i name="NELECT">    160.00000000</i>
   <i type="int" name="TURBO">     0</i>
   <i type="int" name="IRESTART">     0</i>
   <i type="int" name="NREBOOT">     0</i>
   <i type="int" name="NMIN">     0</i>
   <i name="EREF">      0.00000000</i>
   <separator name="electronic smearing" >
    <i type="int" name="ISMEAR">     1</i>
    <i name="SIGMA">      0.20000000</i>
    <i name="KSPACING">      0.50000000</i>
    <i type="logical" name="KGAMMA"> T  </i>
   </separator>
   <separator name="electronic projectors" >
    <i type="logical" name="LREAL"> F  </i>
    <v name="ROPT">      0.00000000      0.00000000      0.00000000</v>
    <i type="int" name="LMAXPAW">  -100</i>
    <i type="int" name="LMAXMIX">     2</i>
    <i type="logical" name="NLSPLINE"> F  </i>
   </separator>
   <separator name="electronic startup" >
    <i type="int" name="ISTART">     0</i>
    <i type="int" name="ICHARG">     2</i>
    <i type="int" name="INIWAV">     1</i>
   </separator>
   <separator name="electronic spin" >
    <i type="int" name="ISPIN">     1</i>
    <i type="logical" name="LNONCOLLINEAR"> F  </i>
    <v name="MAGMOM">      1.00000000      1.00000000      1.00000000      1.00000000      1.00000000      1.00000000      1.00000000      1.00000000      1.00000000      1.00000000      1.00000000      1.00000000      1.00000000      1.00000000      1.00000000      1.00000000</v>
    <i name="NUPDOWN">     -1.00000000</i>
    <i type="logical" name="LSORBIT"> F  </i>
    <v name="SAXIS">      0.00000000      0.00000000      1.00000000</v>
    <i type="logical" name="LSPIRAL"> F  </i>
    <v name="QSPIRAL">      0.00000000      0.00000000      0.00000000</v>
    <i type="logical" name="LZEROZ"> F  </i>
   </separator>
   <separator name="electronic exchange-correlation" >
    <i type="logical" name="LASPH"> F  </i>
    <i type="logical" name="LMETAGGA"> F  </i>
   </separator>
   <separator name="electronic convergence" >
    <i type="int" name="NELM">    60</i>
    <i type="int" name="NELMDL">    -5</i>
    <i type="int" name="NELMIN">     2</i>
    <i name="ENINI">    350.00000000</i>
    <separator name="electronic convergence detail" >
     <i type="logical" name="LDIAG"> T  </i>
     <i type="logical" name="LSUBROT"> F  </i>
     <i name="WEIMIN">      0.00000000</i>
     <i name="EBREAK">      0.00000003</i>
     <i name="DEPER">      0.30000000</i>
     <i type="int" name="NRMM">     4</i>
     <i name="TIME">      0.40000000</i>
    </separator>
   </separator>
   <separator name="electronic mixer" >
    <i name="AMIX">      0.40000000</i>
    <i name="BMIX">      1.00000000</i>
    <i name="AMIN">      0.10000000</i>
    <i name="AMIX_MAG">      1.60000000</i>
    <i name="BMIX_MAG">      1.00000000</i>
    <separator name="electronic mixer details" >
     <i type="int" name="IMIX">     4</i>
     <i type="logical" name="MIXFIRST"> F  </i>
     <i type="int" name="MAXMIX">   -45</i>
     <i name="WC">    100.00000000</i>
     <i type="int" name="INIMIX">     1</i>
     <i type="int" name="MIXPRE">     1</i>
     <i type="int" name="MREMOVE">     5</i>
    </separator>
   </separator>
   <separator name="electronic dipolcorrection" >
    <i type="logical" name="LDIPOL"> F  </i>
    <i type="logical" name="LMONO"> F  </i>
    <i type="int" name="IDIPOL">     3</i>
    <i name="EPSILON">      1.00000000</i>
    <v name="DIPOL">   -100.00000000   -100.00000000   -100.00000000</v>
    <i name="EFIELD">      0.00000000</i>
   </separator>
  </separator>
  <separator name="grids" >
   <i type="int" name="NGX">    28</i>
   <i type="int" name="NGY">    28</i>
   <i type="int" name="NGZ">   144</i>
   <i type="int" name="NGXF">    56</i>
   <i type="int" name="NGYF">    56</i>
   <i type="int" name="NGZF">   288</i>
   <i type="logical" name="ADDGRID"> F  </i>
  </separator>
  <separator name="ionic" >
   <i type="int" name="NSW">     0</i>
   <i type="int" name="IBRION">    -1</i>
   <i type="int" name="MDALGO">     0</i>
   <i type="int" name="ISIF">     2</i>
   <i name="PSTRESS">      0.00000000</i>
   <i name="EDIFFG">     -0.05000000</i>
   <i type="int" name="NFREE">     1</i>
   <i name="POTIM">      0.50000000</i>
   <i name="SMASS">     -3.00000000</i>
   <i name="SCALEE">      1.00000000</i>
  </separator>
  <separator name="ionic md" >
   <i name="TEBEG">      0.00010000</i>
   <i name="TEEND">      0.00010000</i>
   <i type="int" name="NBLOCK">     1</i>
   <i type="int" name="KBLOCK">     1</i>
   <i type="int" name="NPACO">   256</i>
   <i name="APACO">     16.00000000</i>
  </separator>
  <separator name="symmetry" >
   <i type="int" name="ISYM">     2</i>
   <i name="SYMPREC">      0.00001000</i>
  </separator>
  <separator name="dos" >
   <i type="int" name="LORBIT">     0</i>
   <v name="RWIGS">     -1.00000000     -1.00000000     -1.00000000</v>
   <i type="int" name="NEDOS">   301</i>
   <i name="EMIN">     10.00000000</i>
   <i name="EMAX">    -10.00000000</i>
   <i name="EFERMI">      0.00000000</i>
  </separator>
  <separator name="writing" >
   <i type="int" name="NWRITE">     2</i>
   <i type="logical" name="LWAVE"> F  </i>
   <i type="logical" name="LDOWNSAMPLE"> F  </i>
   <i type="logical" name="LCHARG"> F  </i>
   <i type="logical" name="LPARD"> F  </i>
   <i type="logical" name="LVTOT"> F  </i>
   <i type="logical" name="LVHAR"> F  </i>
   <i type="logical" name="LELF"> F  </i>
   <i type="logical" name="LOPTICS"> F  </i>
   <v name="STM">      0.00000000      0.00000000      0.00000000      0.00000000      0.00000000      0.00000000      0.00000000</v>
  </separator>
  <separator name="performance" >
   <i type="int" name="NPAR">    24</i>
   <i type="int" name="NSIM">     4</i>
   <i type="int" name="NBLK">    -1</i>
   <i type="logical" name="LPLANE"> T  </i>
   <i type="logical" name="LSCALAPACK"> T  </i>
   <i type="logical" name="LSCAAWARE"> F  </i>
   <i type="logical" name="LSCALU"> F  </i>
   <i type="logical" name="LASYNC"> F  </i>
   <i type="logical" name="LORBITALREAL"> F  </i>
  </separator>
  <separator name="miscellaneous" >
   <i type="int" name="IDIOT">     3</i>
   <i type="int" name="ISPECIAL">     0</i>
   <i type="logical" name="LMUSIC"> F  </i>
   <v name="POMASS">    196.96600000    195.08000000    192.22000000</v>
   <v name="DARWINR">      0.00000000      0.00000000      0.00000000</v>
   <v name="DARWINV">      1.00000000      1.00000000      1.00000000</v>
   <i type="logical" name="LCORR"> T  </i>
  </separator>
  <i type="logical" name="GGA_COMPAT"> T  </i>
  <i type="logical" name="LBERRY"> F  </i>
  <i type="int" name="ICORELEVEL">     0</i>
  <i type="logical" name="LDAU"> F  </i>
  <i type="int" name="I_CONSTRAINED_M">     0</i>
  <separator name="electronic exchange-correlation" >
   <i type="string" name="GGA">PE</i>
   <i type="int" name="VOSKOWN">     0</i>
   <i type="logical" name="LHFCALC"> F  </i>
   <i type="string" name="PRECFOCK"></i>
   <i type="logical" name="LSYMGRAD"> F  </i>
   <i type="logical" name="LHFONE"> F  </i>
   <i type="logical" name="LRHFCALC"> F  </i>
   <i type="logical" name="LTHOMAS"> F  </i>
   <i type="logical" name="LMODELHF"> F  </i>
   <i name="ENCUT4O">     -1.00000000</i>
   <i type="int" name="EXXOEP">     0</i>
   <i type="int" name="FOURORBIT">     0</i>
   <i name="AEXX">      0.00000000</i>
   <i name="HFALPHA">      0.00000000</i>
   <i name="MCALPHA">      0.00000000</i>
   <i name="ALDAX">      1.00000000</i>
   <i name="AGGAX">      1.00000000</i>
   <i name="ALDAC">      1.00000000</i>
   <i name="AGGAC">      1.00000000</i>
   <i type="int" name="NKREDX">     1</i>
   <i type="int" name="NKREDY">     1</i>
   <i type="int" name="NKREDZ">     1</i>
   <i type="logical" name="SHIFTRED"> F  </i>
   <i type="logical" name="ODDONLY"> F  </i>
   <i type="logical" name="EVENONLY"> F  </i>
   <i type="int" name="LMAXFOCK">     0</i>
   <i type="int" name="NMAXFOCKAE">     0</i>
   <i type="logical" name="LFOCKAEDFT"> F  </i>
   <i name="HFSCREEN">      0.00000000</i>
   <i name="HFSCREENC">      0.00000000</i>
   <i type="int" name="NBANDSGWLOW">     0</i>
  </separator>
  <separator name="vdW DFT" >
   <i type="logical" name="LUSE_VDW"> F  </i>
   <i name="Zab_VDW">     -0.84910000</i>
   <i name="PARAM1">      0.12340000</i>
   <i name="PARAM2">      1.00000000</i>
   <i name="PARAM3">      0.00000000</i>
  </separator>
  <separator name="model GW" >
   <i type="int" name="MODEL_GW">     0</i>
   <i name="MODEL_EPS0">     30.90479278</i>
   <i name="MODEL_ALPHA">      1.00000000</i>
  </separator>
  <separator name="linear response parameters" >
   <i type="logical" name="LEPSILON"> F  </i>
   <i type="logical" name="LRPA"> F  </i>
   <i type="logical" name="LNABLA"> F  </i>
   <i type="logical" name="LVEL"> F  </i>
   <i type="int" name="KINTER">     0</i>
   <i name="CSHIFT">      0.10000000</i>
   <i name="OMEGAMAX">     -1.00000000</i>
   <i name="DEG_THRESHOLD">      0.00200000</i>
   <i name="RTIME">     -0.10000000</i>
   <i name="WPLASMAI">      0.00000000</i>
   <v name="DFIELD">      0.00000000      0.00000000      0.00000000</v>
   <v name="WPLASMA">      0.00000000      0.00000000      0.00000000      0.00000000      0.00000000      0.00000000      0.00000000      0.00000000      0.00000000</v>
  </separator>
  <separator name="orbital magnetization" >
   <i type="logical" name="NUCIND"> F  </i>
   <v name="MAGPOS">      0.00000000      0.00000000      0.00000000</v>
   <i type="logical" name="LNICSALL"> T  </i>
   <i type="logical" name="ORBITALMAG"> F  </i>
   <i type="logical" name="LMAGBLOCH"> F  </i>
   <i type="logical" name="LCHIMAG"> F  </i>
   <i type="logical" name="LGAUGE"> T  </i>
   <i type="int" name="MAGATOM">     0</i>
   <v name="MAGDIPOL">      0.00000000      0.00000000      0.00000000</v>
   <v name="AVECCONST">      0.00000000      0.00000000      0.00000000</v>
  </separator>
  <separator name="response functions" >
   <i type="logical" name="LADDER"> F  </i>
   <i type="logical" name="LRPAFORCE"> F  </i>
   <i type="logical" name="LFXC"> F  </i>
   <i type="logical" name="LHARTREE"> T  </i>
   <i type="int" name="IBSE">     0</i>
   <v type="int" name="KPOINT">    -1     0     0     0</v>
   <i type="logical" name="LTCTE"> F  </i>
   <i type="logical" name="LTETE"> F  </i>
   <i type="logical" name="LTRIPLET"> F  </i>
   <i type="logical" name="LFXCEPS"> F  </i>
   <i type="logical" name="LFXHEG"> F  </i>
   <i type="int" name="NATURALO">     2</i>
   <i type="logical" name="L2ORDER"> F  </i>
   <i type="logical" name="LMP2LT"> F  </i>
   <i type="logical" name="LUSEW"> F  </i>
   <i name="ENCUTGW">     -2.00000000</i>
   <i name="ENCUTGWSOFT">     -2.00000000</i>
   <i name="ENCUTLF">     -1.00000000</i>
   <i type="int" name="LMAXMP2">    -1</i>
   <i name="SCISSOR">      0.00000000</i>
   <i type="int" name="NOMEGA">     0</i>
   <i type="int" name="NOMEGAR">     0</i>
   <i type="int" name="NBANDSGW">    -1</i>
   <i type="int" name="NBANDSO">    -1</i>
   <i type="int" name="NBANDSV">    -1</i>
   <i type="int" name="NELM">     1</i>
   <i type="int" name="NELMHF">     1</i>
   <i type="int" name="DIM">     3</i>
   <i type="int" name="ANTIRES">     0</i>
   <i name="OMEGAMAX">    -30.00000000</i>
   <i name="OMEGAMIN">    -30.00000000</i>
   <i name="OMEGATL">   -200.00000000</i>
   <i type="int" name="OMEGAGRID">   140</i>
   <i name="CSHIFT">     -0.10000000</i>
   <i type="logical" name="SELFENERGY"> F  </i>
   <i type="logical" name="LSPECTRAL"> F  </i>
   <i type="logical" name="LSPECTRALGW"> F  </i>
   <i type="logical" name="LSINGLES"> F  </i>
   <i type="logical" name="LFERMIGW"> F  </i>
   <i type="logical" name="ODDONLYGW"> F  </i>
   <i type="logical" name="EVENONLYGW"> F  </i>
   <i type="int" name="NKREDLFX">     1</i>
   <i type="int" name="NKREDLFY">     1</i>
   <i type="int" name="NKREDLFZ">     1</i>
   <i type="int" name="MAXMEM">  2800</i>
   <i type="int" name="TELESCOPE">     0</i>
   <i type="int" name="TAUPAR">     1</i>
   <i type="int" name="OMEGAPAR">    -1</i>
   <i name="LAMBDA">      1.00000000</i>
  </separator>
  <separator name="External order field" >
   <i name="OFIELD_KAPPA">      0.00000000</i>
   <v name="OFIELD_K">      0.00000000      0.00000000      0.00000000</v>
   <i name="OFIELD_Q6_NEAR">      0.00000000</i>
   <i name="OFIELD_Q6_FAR">      0.00000000</i>
   <i name="OFIELD_A">      0.00000000</i>
  </separator>
 </parameters>
 <atominfo>
  <atoms>      16 </atoms>
  <types>       3 </types>
  <array name="atoms" >
   <dimension dim="1">ion</dimension>
   <field type="string">element</field>
   <field type="int">atomtype</field>
   <set>
    <rc><c>Au</c><c>   1</c></rc>
    <rc><c>Pt</c><c>   2</c></rc>
    <rc><c>Pt</c><c>   2</c></rc>
    <rc><c>Pt</c><c>   2</c></rc>
    <rc><c>Pt</c><c>   2</c></rc>
    <rc><c>Pt</c><c>   2</c></rc>
    <rc><c>Pt</c><c>   2</c></rc>
    <rc><c>Pt</c><c>   2</c></rc>
    <rc><c>Pt</c><c>   2</c></rc>
    <rc><c>Pt</c><c>   2</c></rc>
    <rc><c>Pt</c><c>   2</c></rc>
    <rc><c>Pt</c><c>   2</c></rc>
    <rc><c>Pt</c><c>   2</c></rc>
    <rc><c>Pt</c><c>   2</c></rc>
    <rc><c>Pt</c><c>   2</c></rc>
    <rc><c>Ir</c><c>   3</c></rc>
   </set>
  </array>
  <array name="atomtypes" >
   <dimension dim="1">type</dimension>
   <field type="int">atomspertype</field>
   <field type="string">element</field>
   <field>mass</field>
   <field>valence</field>
   <field type="string">pseudopotential</field>
   <set>
    <rc><c>   1</c><c>Au</c><c>    196.96600000</c><c>     11.00000000</c><c>  PAW_PBE Au 04Oct2007                  </c></rc>
    <rc><c>  14</c><c>Pt</c><c>    195.08000000</c><c>     10.00000000</c><c>  PAW_PBE Pt 04Feb2005                  </c></rc>
    <rc><c>   1</c><c>Ir</c><c>    192.22000000</c><c>      9.00000000</c><c>  PAW_PBE Ir 06Sep2000                  </c></rc>
   </set>
  </array>
 </atominfo>
 <structure name="initialpos" >
  <crystal>
   <varray name="basis" >
    <v>       5.55785930       0.00000000       0.00000000 </v>
    <v>       2.77892965       4.81324734       0.00000000 </v>
    <v>       0.00000000       0.00000000      30.80695967 </v>
   </varray>
   <i name="volume">    824.12780743 </i>
   <varray name="rec_basis" >
    <v>       0.17992539      -0.10387997       0.00000000 </v>
    <v>       0.00000000       0.20775994       0.00000000 </v>
    <v>       0.00000000       0.00000000       0.03246020 </v>
   </varray>
  </crystal>
  <varray name="positions" >
   <v>       0.00000000       0.00000000       0.38952237 </v>
   <v>       0.50000000       0.00000000       0.38952237 </v>
   <v>       0.00000000       0.50000000       0.38952237 </v>
   <v>       0.50000000       0.50000000       0.38952237 </v>
   <v>       0.16666667       0.16666667       0.46468540 </v>
   <v>       0.66666667       0.16666667       0.46468540 </v>
   <v>       0.16666667       0.66666667       0.46468540 </v>
   <v>       0.66666667       0.66666667       0.46468540 </v>
   <v>       0.83333333       0.33333333       0.53920296 </v>
   <v>       0.33333333       0.33333333       0.53920296 </v>
   <v>       0.33333333       0.83333333       0.53920296 </v>
   <v>       0.00000000       0.00000000       0.61486043 </v>
   <v>       0.50000000       0.00000000       0.61486043 </v>
   <v>       0.00000000       0.50000000       0.61486043 </v>
   <v>       0.50000000       0.50000000       0.61486043 </v>
   <v>       0.83333333       0.83333333       0.53920296 </v>
  </varray>
  <varray name="selective"  type="logical" >
   <v type="logical" >  F  F  F </v>
   <v type="logical" >  F  F  F </v>
   <v type="logical" >  F  F  F </v>
   <v type="logical" >  F  F  F </v>
   <v type="logical" >  T  T  T </v>
   <v type="logical" >  T  T  T </v>
   <v type="logical" >  T  T  T </v>
   <v type="logical" >  T  T  T </v>
   <v type="logical" >  T  T  T </v>
   <v type="logical" >  T  T  T </v>
   <v type="logical" >  T  T  T </v>
   <v type="logical" >  T  T  T </v>
   <v type="logical" >  T  T  T </v>
   <v type="logical" >  T  T  T </v>
   <v type="logical" >  T  T  T </v>
   <v type="logical" >  T  T  T </v>
  </varray>
  <nose>
   <v>      -3.00000000       0.00000000       0.00010000       0.00010000 </v>
  </nose>
 </structure>
 <calculation>
  <scstep>
   <time name="dav">    9.25    9.25</time>
   <time name="total">    9.27    9.28</time>
   <energy>
    <i name="alphaZ">    303.52543553 </i>
    <i name="ewald">  97993.82862264 </i>
    <i name="hartreedc">-110064.78898628 </i>
    <i name="XCdc">     46.30325055 </i>
    <i name="pawpsdc">  11171.21661038 </i>
    <i name="pawaedc"> -10711.84633960 </i>
    <i name="eentropy">      0.00048254 </i>
    <i name="bandstr">    546.61685128 </i>
    <i name="atom">  11693.69420960 </i>
    <i name="e_fr_energy">    978.55013664 </i>
    <i name="e_wo_entrp">    978.54965410 </i>
    <i name="e_0_energy">    978.54997579 </i>
   </energy>
  </scstep>
  <scstep>
   <time name="dav">   13.18   13.18</time>
   <time name="total">   13.18   13.18</time>
   <energy>
    <i name="e_fr_energy">    -39.28299866 </i>
    <i name="e_wo_entrp">    -39.27659446 </i>
    <i name="e_0_energy">    -39.28086393 </i>
   </energy>
  </scstep>
  <scstep>
   <time name="dav">   11.31   11.32</time>
   <time name="total">   11.31   11.32</time>
   <energy>
    <i name="e_fr_energy">    -97.48857012 </i>
    <i name="e_wo_entrp">    -97.47380425 </i>
    <i name="e_0_energy">    -97.48364816 </i>
   </energy>
  </scstep>
  <scstep>
   <time name="dav">   12.82   12.82</time>
   <time name="total">   12.82   12.82</time>
   <energy>
    <i name="e_fr_energy">    -98.72047209 </i>
    <i name="e_wo_entrp">    -98.70619193 </i>
    <i name="e_0_energy">    -98.71571204 </i>
   </energy>
  </scstep>
  <scstep>
   <time name="dav">   13.64   13.64</time>
   <time name="total">   13.98   13.98</time>
   <energy>
    <i name="e_fr_energy">    -98.75240241 </i>
    <i name="e_wo_entrp">    -98.73814452 </i>
    <i name="e_0_energy">    -98.74764978 </i>
   </energy>
  </scstep>
  <scstep>
   <time name="dav">   11.10   11.10</time>
   <time name="total">   11.46   11.47</time>
   <energy>
    <i name="e_fr_energy">    -94.75633391 </i>
    <i name="e_wo_entrp">    -94.71651076 </i>
    <i name="e_0_energy">    -94.74305953 </i>
   </energy>
  </scstep>
  <scstep>
   <time name="dav">   12.32   12.33</time>
   <time name="total">   12.68   12.68</time>
   <energy>
    <i name="e_fr_energy">   -120.30614398 </i>
    <i name="e_wo_entrp">   -120.29507621 </i>
    <i name="e_0_energy">   -120.30245472 </i>
   </energy>
  </scstep>
  <scstep>
   <time name="dav">   13.51   13.51</time>
   <time name="total">   13.90   13.91</time>
   <energy>
    <i name="e_fr_energy">    -96.48886424 </i>
    <i name="e_wo_entrp">    -96.49787565 </i>
    <i name="e_0_energy">    -96.49186804 </i>
   </energy>
  </scstep>
  <scstep>
   <time name="dav">   11.65   11.65</time>
   <time name="total">   12.01   12.01</time>
   <energy>
    <i name="e_fr_energy">   -104.63622879 </i>
    <i name="e_wo_entrp">   -104.65683317 </i>
    <i name="e_0_energy">   -104.64309691 </i>
   </energy>
  </scstep>
  <scstep>
   <time name="dav">   13.01   13.01</time>
   <time name="total">   13.37   13.37</time>
   <energy>
    <i name="e_fr_energy">    -95.98827355 </i>
    <i name="e_wo_entrp">    -95.97215613 </i>
    <i name="e_0_energy">    -95.98290107 </i>
   </energy>
  </scstep>
  <scstep>
   <time name="dav">   11.56   11.57</time>
   <time name="total">   11.92   11.93</time>
   <energy>
    <i name="e_fr_energy">    -92.72163520 </i>
    <i name="e_wo_entrp">    -92.70474378 </i>
    <i name="e_0_energy">    -92.71600473 </i>
   </energy>
  </scstep>
  <scstep>
   <time name="dav">   11.54   11.54</time>
   <time name="total">   11.90   11.90</time>
   <energy>
    <i name="e_fr_energy">    -92.84605106 </i>
    <i name="e_wo_entrp">    -92.80893783 </i>
    <i name="e_0_energy">    -92.83367998 </i>
   </energy>
  </scstep>
  <scstep>
   <time name="dav">   11.28   11.28</time>
   <time name="total">   11.64   11.64</time>
   <energy>
    <i name="e_fr_energy">    -92.56799982 </i>
    <i name="e_wo_entrp">    -92.55329770 </i>
    <i name="e_0_energy">    -92.56309911 </i>
   </energy>
  </scstep>
  <scstep>
   <time name="dav">   12.37   12.37</time>
   <time name="total">   12.73   12.74</time>
   <energy>
    <i name="e_fr_energy">    -92.50459095 </i>
    <i name="e_wo_entrp">    -92.47773280 </i>
    <i name="e_0_energy">    -92.49563824 </i>
   </energy>
  </scstep>
  <scstep>
   <time name="dav">   12.78   12.79</time>
   <time name="total">   13.15   13.15</time>
   <energy>
    <i name="e_fr_energy">    -92.51333784 </i>
    <i name="e_wo_entrp">    -92.49240852 </i>
    <i name="e_0_energy">    -92.50636140 </i>
   </energy>
  </scstep>
  <scstep>
   <time name="dav">   12.08   12.08</time>
   <time name="total">   12.44   12.45</time>
   <energy>
    <i name="e_fr_energy">    -92.49808099 </i>
    <i name="e_wo_entrp">    -92.47575795 </i>
    <i name="e_0_energy">    -92.49063997 </i>
   </energy>
  </scstep>
  <scstep>
   <time name="dav">   11.00   11.00</time>
   <time name="total">   11.36   11.36</time>
   <energy>
    <i name="e_fr_energy">    -92.47718052 </i>
    <i name="e_wo_entrp">    -92.45425547 </i>
    <i name="e_0_energy">    -92.46953883 </i>
   </energy>
  </scstep>
  <scstep>
   <time name="dav">   12.77   12.77</time>
   <time name="total">   13.14   13.15</time>
   <energy>
    <i name="e_fr_energy">    -92.46889288 </i>
    <i name="e_wo_entrp">    -92.44656006 </i>
    <i name="e_0_energy">    -92.46144861 </i>
   </energy>
  </scstep>
  <scstep>
   <time name="dav">   11.12   11.12</time>
   <time name="total">   11.49   11.49</time>
   <energy>
    <i name="e_fr_energy">    -92.46900805 </i>
    <i name="e_wo_entrp">    -92.44619866 </i>
    <i name="e_0_energy">    -92.46140492 </i>
   </energy>
  </scstep>
  <scstep>
   <time name="dav">   11.27   11.27</time>
   <time name="total">   11.64   11.64</time>
   <energy>
    <i name="e_fr_energy">    -92.46845511 </i>
    <i name="e_wo_entrp">    -92.44576936 </i>
    <i name="e_0_energy">    -92.46089320 </i>
   </energy>
  </scstep>
  <scstep>
   <time name="dav">   11.04   11.04</time>
   <time name="total">   11.41   11.42</time>
   <energy>
    <i name="e_fr_energy">    -92.46699472 </i>
    <i name="e_wo_entrp">    -92.44462250 </i>
    <i name="e_0_energy">    -92.45953731 </i>
   </energy>
  </scstep>
  <scstep>
   <time name="dav">   11.55   11.55</time>
   <time name="total">   11.92   11.92</time>
   <energy>
    <i name="e_fr_energy">    -92.46686100 </i>
    <i name="e_wo_entrp">    -92.44460639 </i>
    <i name="e_0_energy">    -92.45944280 </i>
   </energy>
  </scstep>
  <scstep>
   <time name="dav">   10.46   10.46</time>
   <time name="total">   10.83   10.83</time>
   <energy>
    <i name="e_fr_energy">    -92.46684480 </i>
    <i name="e_wo_entrp">    -92.44446828 </i>
    <i name="e_0_energy">    -92.45938596 </i>
   </energy>
  </scstep>
  <scstep>
   <time name="dav">    7.18    7.18</time>
   <time name="total">    7.20    7.21</time>
   <energy>
    <i name="alphaZ">    303.52543553 </i>
    <i name="ewald">  97993.82862264 </i>
    <i name="hartreedc">-109898.85480775 </i>
    <i name="XCdc">     40.69169593 </i>
    <i name="pawpsdc">  14186.79578229 </i>
    <i name="pawaedc"> -13771.64925088 </i>
    <i name="eentropy">     -0.02229712 </i>
    <i name="bandstr">   -640.47623640 </i>
    <i name="atom">  11693.69420960 </i>
    <i name="e_fr_energy">    -92.46684616 </i>
    <i name="e_wo_entrp">    -92.44454904 </i>
    <i name="e_0_energy">    -92.45941379 </i>
   </energy>
  </scstep>
  <dipole>
   <v name="dipole">      0.00000000       0.00000000       0.02273890 </v>
   <i name="Tr[quadrupol]">   -949.51016926 </i>
   <i name="Echarged">      0.00000000 </i>
   <i name="Edipol_quadrupol">      0.00000000 </i>
   <i name="Eion">      0.00000000 </i>
  </dipole>
  <structure>
   <crystal>
    <varray name="basis" >
     <v>       5.55785930       0.00000000       0.00000000 </v>
     <v>       2.77892965       4.81324734       0.00000000 </v>
     <v>       0.00000000       0.00000000      30.80695967 </v>
    </varray>
    <i name="volume">    824.12780743 </i>
    <varray name="rec_basis" >
     <v>       0.17992539      -0.10387997       0.00000000 </v>
     <v>       0.00000000       0.20775994       0.00000000 </v>
     <v>       0.00000000       0.00000000       0.03246020 </v>
    </varray>
   </crystal>
   <varray name="positions" >
    <v>       0.00000000       0.00000000       0.38952237 </v>
    <v>       0.50000000       0.00000000       0.38952237 </v>
    <v>       0.00000000       0.50000000       0.38952237 </v>
    <v>       0.50000000       0.50000000       0.38952237 </v>
    <v>       0.16666667       0.16666667       0.46468540 </v>
    <v>       0.66666667       0.16666667       0.46468540 </v>
    <v>       0.16666667       0.66666667       0.46468540 </v>
    <v>       0.66666667       0.66666667       0.46468540 </v>
    <v>       0.83333333       0.33333333       0.53920296 </v>
    <v>       0.33333333       0.33333333       0.53920296 </v>
    <v>       0.33333333       0.83333333       0.53920296 </v>
    <v>       0.00000000       0.00000000       0.61486043 </v>
    <v>       0.50000000       0.00000000       0.61486043 </v>
    <v>       0.00000000       0.50000000       0.61486043 </v>
    <v>       0.50000000       0.50000000       0.61486043 </v>
    <v>       0.83333333       0.83333333       0.53920296 </v>
   </varray>
  </structure>
  <varray name="forces" >
   <v>       0.00729414       0.00421127      -1.16109211 </v>
   <v>      -0.01071553       0.00365022       0.03331353 </v>
   <v>      -0.00219658      -0.01110503       0.03331353 </v>
   <v>       0.00081315       0.00046947       0.14738093 </v>
   <v>       0.13290986       0.07673554       0.16387446 </v>
   <v>      -0.11167479      -0.05983807       0.48116984 </v>
   <v>      -0.10765868      -0.06679417       0.48116984 </v>
   <v>       0.11034480       0.06370760       0.22383600 </v>
   <v>      -0.02746566       0.02010245       0.01854035 </v>
   <v>       0.01247130       0.00720031       0.27777423 </v>
   <v>       0.00367640      -0.03383718       0.01854035 </v>
   <v>      -0.14496585      -0.08369607      -0.24196226 </v>
   <v>       0.14096615      -0.11339428      -0.21759212 </v>
   <v>      -0.02771926       0.17877741      -0.21759212 </v>
   <v>       0.03322270       0.01918114       0.04836572 </v>
   <v>      -0.00930216      -0.00537061      -0.08904017 </v>
  </varray>
  <varray name="stress" >
   <v>     -21.81034028      -0.05125567      -0.06124768 </v>
   <v>      -0.05125567     -21.75115534      -0.03536137 </v>
   <v>      -0.06124777      -0.03536142      -2.42299325 </v>
  </varray>
  <energy>
   <i name="e_fr_energy">    -92.46678940 </i>
   <i name="e_wo_entrp">    -92.45935702 </i>
   <i name="e_0_energy">     -0.02229712 </i>
  </energy>
  <time name="totalsc">  300.25  300.38</time>
  <eigenvalues>
   <array>
    <dimension dim="1">band</dimension>
    <dimension dim="2">kpoint</dimension>
    <dimension dim="3">spin</dimension>
    <field>eigene</field>
    <field>occ</field>
    <set>
     <set comment="spin 1">
      <set comment="kpoint 1">
       <r>  -10.1851    1.0000 </r>
       <r>   -8.9120    1.0000 </r>
       <r>   -7.8576    1.0000 </r>
       <r>   -7.7157    1.0000 </r>
       <r>   -7.4491    1.0000 </r>
       <r>   -7.4206    1.0000 </r>
       <r>   -7.4155    1.0000 </r>
       <r>   -7.3084    1.0000 </r>
       <r>   -7.2761    1.0000 </r>
       <r>   -7.2618    1.0000 </r>
       <r>   -6.8226    1.0000 </r>
       <r>   -6.8110    1.0000 </r>
       <r>   -6.7969    1.0000 </r>
       <r>   -6.7910    1.0000 </r>
       <r>   -6.7777    1.0000 </r>
       <r>   -6.5953    1.0000 </r>
       <r>   -6.5551    1.0000 </r>
       <r>   -6.5373    1.0000 </r>
       <r>   -6.4912    1.0000 </r>
       <r>   -5.7953    1.0000 </r>
       <r>   -5.7762    1.0000 </r>
       <r>   -5.6750    1.0000 </r>
       <r>   -4.9368    1.0000 </r>
       <r>   -4.9270    1.0000 </r>
       <r>   -4.8071    1.0000 </r>
       <r>   -4.6589    1.0000 </r>
       <r>   -4.6465    1.0000 </r>
       <r>   -4.6319    1.0000 </r>
       <r>   -4.5657    1.0000 </r>
       <r>   -4.5072    1.0000 </r>
       <r>   -4.3264    1.0000 </r>
       <r>   -4.2790    1.0000 </r>
       <r>   -4.1615    1.0000 </r>
       <r>   -4.1540    1.0000 </r>
       <r>   -4.0322    1.0000 </r>
       <r>   -4.0286    1.0000 </r>
       <r>   -3.9808    1.0000 </r>
       <r>   -3.9381    1.0000 </r>
       <r>   -3.8904    1.0000 </r>
       <r>   -3.8626    1.0000 </r>
       <r>   -3.7714    1.0000 </r>
       <r>   -3.7487    1.0000 </r>
       <r>   -3.5074    1.0000 </r>
       <r>   -3.4662    1.0000 </r>
       <r>   -3.4108    1.0000 </r>
       <r>   -3.1425    1.0000 </r>
       <r>   -3.1359    1.0000 </r>
       <r>   -2.9289    1.0000 </r>
       <r>   -2.9157    1.0000 </r>
       <r>   -2.7758    1.0000 </r>
       <r>   -2.7452    1.0000 </r>
       <r>   -2.3309    1.0000 </r>
       <r>   -2.3122    1.0000 </r>
       <r>   -2.1062    1.0000 </r>
       <r>   -2.0750    1.0000 </r>
       <r>   -1.8396    1.0000 </r>
       <r>   -1.8334    1.0000 </r>
       <r>   -1.7387    1.0000 </r>
       <r>   -1.6824    1.0000 </r>
       <r>   -1.5880    1.0000 </r>
       <r>   -1.5840    1.0000 </r>
       <r>   -1.5316    1.0000 </r>
       <r>   -1.3371    1.0004 </r>
       <r>   -1.1453    1.0164 </r>
       <r>   -1.1206    1.0218 </r>
       <r>   -1.1151    1.0230 </r>
       <r>   -1.0329    1.0353 </r>
       <r>   -1.0122    1.0319 </r>
       <r>   -0.9100    0.9084 </r>
       <r>   -0.8635    0.7719 </r>
       <r>   -0.8401    0.6855 </r>
       <r>   -0.8129    0.5753 </r>
       <r>   -0.7577    0.3451 </r>
       <r>   -0.7243    0.2207 </r>
       <r>   -0.6901    0.1168 </r>
       <r>   -0.6251   -0.0017 </r>
       <r>   -0.6033   -0.0203 </r>
       <r>   -0.5311   -0.0343 </r>
       <r>   -0.3804   -0.0063 </r>
       <r>   -0.3532   -0.0038 </r>
       <r>   -0.2928   -0.0011 </r>
       <r>   -0.2087   -0.0001 </r>
       <r>   -0.1966   -0.0001 </r>
       <r>   -0.1620   -0.0000 </r>
       <r>   -0.0776   -0.0000 </r>
       <r>    0.0420   -0.0000 </r>
       <r>    0.3322   -0.0000 </r>
       <r>    0.3634   -0.0000 </r>
       <r>    1.2404   -0.0000 </r>
       <r>    1.4981   -0.0000 </r>
       <r>    1.6404   -0.0000 </r>
       <r>    1.6846   -0.0000 </r>
       <r>    1.7774   -0.0000 </r>
       <r>    1.7876   -0.0000 </r>
       <r>    2.6229   -0.0000 </r>
       <r>    2.6362   -0.0000 </r>
      </set>
      <set comment="kpoint 2">
       <r>  -10.1851    1.0000 </r>
       <r>   -8.9120    1.0000 </r>
       <r>   -7.8576    1.0000 </r>
       <r>   -7.7157    1.0000 </r>
       <r>   -7.4487    1.0000 </r>
       <r>   -7.4243    1.0000 </r>
       <r>   -7.4122    1.0000 </r>
       <r>   -7.3061    1.0000 </r>
       <r>   -7.2832    1.0000 </r>
       <r>   -7.2570    1.0000 </r>
       <r>   -6.8219    1.0000 </r>
       <r>   -6.8086    1.0000 </r>
       <r>   -6.7996    1.0000 </r>
       <r>   -6.7893    1.0000 </r>
       <r>   -6.7803    1.0000 </r>
       <r>   -6.5942    1.0000 </r>
       <r>   -6.5517    1.0000 </r>
       <r>   -6.5427    1.0000 </r>
       <r>   -6.4899    1.0000 </r>
       <r>   -5.7968    1.0000 </r>
       <r>   -5.7751    1.0000 </r>
       <r>   -5.6745    1.0000 </r>
       <r>   -4.9433    1.0000 </r>
       <r>   -4.9209    1.0000 </r>
       <r>   -4.8073    1.0000 </r>
       <r>   -4.6613    1.0000 </r>
       <r>   -4.6401    1.0000 </r>
       <r>   -4.6337    1.0000 </r>
       <r>   -4.5683    1.0000 </r>
       <r>   -4.5074    1.0000 </r>
       <r>   -4.3230    1.0000 </r>
       <r>   -4.2818    1.0000 </r>
       <r>   -4.1662    1.0000 </r>
       <r>   -4.1498    1.0000 </r>
       <r>   -4.0492    1.0000 </r>
       <r>   -4.0077    1.0000 </r>
       <r>   -3.9881    1.0000 </r>
       <r>   -3.9328    1.0000 </r>
       <r>   -3.8957    1.0000 </r>
       <r>   -3.8563    1.0000 </r>
       <r>   -3.7686    1.0000 </r>
       <r>   -3.7522    1.0000 </r>
       <r>   -3.5064    1.0000 </r>
       <r>   -3.4671    1.0000 </r>
       <r>   -3.4100    1.0000 </r>
       <r>   -3.1821    1.0000 </r>
       <r>   -3.0875    1.0000 </r>
       <r>   -2.9411    1.0000 </r>
       <r>   -2.9032    1.0000 </r>
       <r>   -2.8148    1.0000 </r>
       <r>   -2.7171    1.0000 </r>
       <r>   -2.3300    1.0000 </r>
       <r>   -2.3152    1.0000 </r>
       <r>   -2.1057    1.0000 </r>
       <r>   -2.0794    1.0000 </r>
       <r>   -1.8584    1.0000 </r>
       <r>   -1.8090    1.0000 </r>
       <r>   -1.7321    1.0000 </r>
       <r>   -1.6804    1.0000 </r>
       <r>   -1.5959    1.0000 </r>
       <r>   -1.5743    1.0000 </r>
       <r>   -1.5446    1.0000 </r>
       <r>   -1.3234    1.0006 </r>
       <r>   -1.1663    1.0124 </r>
       <r>   -1.1342    1.0187 </r>
       <r>   -1.0699    1.0327 </r>
       <r>   -1.0237    1.0343 </r>
       <r>   -1.0089    1.0309 </r>
       <r>   -0.9361    0.9618 </r>
       <r>   -0.8977    0.8773 </r>
       <r>   -0.8232    0.6179 </r>
       <r>   -0.8073    0.5519 </r>
       <r>   -0.7802    0.4375 </r>
       <r>   -0.7159    0.1925 </r>
       <r>   -0.6924    0.1230 </r>
       <r>   -0.6260   -0.0006 </r>
       <r>   -0.5759   -0.0324 </r>
       <r>   -0.5370   -0.0349 </r>
       <r>   -0.3736   -0.0056 </r>
       <r>   -0.3645   -0.0047 </r>
       <r>   -0.2942   -0.0011 </r>
       <r>   -0.2190   -0.0002 </r>
       <r>   -0.1831   -0.0001 </r>
       <r>   -0.1582   -0.0000 </r>
       <r>   -0.0734   -0.0000 </r>
       <r>    0.0393   -0.0000 </r>
       <r>    0.3073   -0.0000 </r>
       <r>    0.3870   -0.0000 </r>
       <r>    1.2431   -0.0000 </r>
       <r>    1.4954   -0.0000 </r>
       <r>    1.6522   -0.0000 </r>
       <r>    1.6717   -0.0000 </r>
       <r>    1.7438   -0.0000 </r>
       <r>    1.8194   -0.0000 </r>
       <r>    2.6145   -0.0000 </r>
       <r>    2.6491   -0.0000 </r>
      </set>
      <set comment="kpoint 3">
       <r>   -9.9806    1.0000 </r>
       <r>   -8.7105    1.0000 </r>
       <r>   -7.6539    1.0000 </r>
       <r>   -7.5200    1.0000 </r>
       <r>   -7.4288    1.0000 </r>
       <r>   -7.3492    1.0000 </r>
       <r>   -7.2317    1.0000 </r>
       <r>   -7.2155    1.0000 </r>
       <r>   -7.1622    1.0000 </r>
       <r>   -7.0928    1.0000 </r>
       <r>   -6.7396    1.0000 </r>
       <r>   -6.7130    1.0000 </r>
       <r>   -6.7049    1.0000 </r>
       <r>   -6.6888    1.0000 </r>
       <r>   -6.6372    1.0000 </r>
       <r>   -6.4864    1.0000 </r>
       <r>   -6.4336    1.0000 </r>
       <r>   -6.3812    1.0000 </r>
       <r>   -6.3134    1.0000 </r>
       <r>   -5.7383    1.0000 </r>
       <r>   -5.7132    1.0000 </r>
       <r>   -5.6215    1.0000 </r>
       <r>   -4.9717    1.0000 </r>
       <r>   -4.9173    1.0000 </r>
       <r>   -4.8425    1.0000 </r>
       <r>   -4.7113    1.0000 </r>
       <r>   -4.6365    1.0000 </r>
       <r>   -4.5756    1.0000 </r>
       <r>   -4.5635    1.0000 </r>
       <r>   -4.5049    1.0000 </r>
       <r>   -4.4329    1.0000 </r>
       <r>   -4.1714    1.0000 </r>
       <r>   -4.1412    1.0000 </r>
       <r>   -4.1274    1.0000 </r>
       <r>   -4.0677    1.0000 </r>
       <r>   -4.0184    1.0000 </r>
       <r>   -4.0003    1.0000 </r>
       <r>   -3.9725    1.0000 </r>
       <r>   -3.8759    1.0000 </r>
       <r>   -3.8475    1.0000 </r>
       <r>   -3.8195    1.0000 </r>
       <r>   -3.6712    1.0000 </r>
       <r>   -3.6178    1.0000 </r>
       <r>   -3.6087    1.0000 </r>
       <r>   -3.5493    1.0000 </r>
       <r>   -3.4577    1.0000 </r>
       <r>   -3.2794    1.0000 </r>
       <r>   -3.1243    1.0000 </r>
       <r>   -2.9482    1.0000 </r>
       <r>   -2.8200    1.0000 </r>
       <r>   -2.6890    1.0000 </r>
       <r>   -2.4405    1.0000 </r>
       <r>   -2.4177    1.0000 </r>
       <r>   -2.3019    1.0000 </r>
       <r>   -2.1473    1.0000 </r>
       <r>   -2.0370    1.0000 </r>
       <r>   -1.9982    1.0000 </r>
       <r>   -1.9035    1.0000 </r>
       <r>   -1.8633    1.0000 </r>
       <r>   -1.8297    1.0000 </r>
       <r>   -1.7889    1.0000 </r>
       <r>   -1.7361    1.0000 </r>
       <r>   -1.6588    1.0000 </r>
       <r>   -1.5779    1.0000 </r>
       <r>   -1.5273    1.0000 </r>
       <r>   -1.4509    1.0000 </r>
       <r>   -1.2852    1.0014 </r>
       <r>   -1.2048    1.0068 </r>
       <r>   -1.1115    1.0239 </r>
       <r>   -1.0778    1.0313 </r>
       <r>   -1.0638    1.0336 </r>
       <r>   -0.9930    1.0240 </r>
       <r>   -0.9244    0.9401 </r>
       <r>   -0.9106    0.9098 </r>
       <r>   -0.8842    0.8392 </r>
       <r>   -0.8260    0.6295 </r>
       <r>   -0.7725    0.4056 </r>
       <r>   -0.7317    0.2466 </r>
       <r>   -0.6982    0.1390 </r>
       <r>   -0.5793   -0.0315 </r>
       <r>   -0.5603   -0.0350 </r>
       <r>   -0.4418   -0.0158 </r>
       <r>   -0.3715   -0.0054 </r>
       <r>   -0.3317   -0.0025 </r>
       <r>   -0.2925   -0.0011 </r>
       <r>    0.1997   -0.0000 </r>
       <r>    0.2410   -0.0000 </r>
       <r>    0.8362   -0.0000 </r>
       <r>    0.8532   -0.0000 </r>
       <r>    1.1059   -0.0000 </r>
       <r>    1.2861   -0.0000 </r>
       <r>    1.6124   -0.0000 </r>
       <r>    2.1726   -0.0000 </r>
       <r>    2.5123   -0.0000 </r>
       <r>    3.0447   -0.0000 </r>
       <r>    3.3877   -0.0000 </r>
      </set>
      <set comment="kpoint 4">
       <r>   -9.9806    1.0000 </r>
       <r>   -8.7105    1.0000 </r>
       <r>   -7.6541    1.0000 </r>
       <r>   -7.5202    1.0000 </r>
       <r>   -7.4281    1.0000 </r>
       <r>   -7.3495    1.0000 </r>
       <r>   -7.2324    1.0000 </r>
       <r>   -7.2155    1.0000 </r>
       <r>   -7.1594    1.0000 </r>
       <r>   -7.0950    1.0000 </r>
       <r>   -6.7394    1.0000 </r>
       <r>   -6.7166    1.0000 </r>
       <r>   -6.6988    1.0000 </r>
       <r>   -6.6943    1.0000 </r>
       <r>   -6.6327    1.0000 </r>
       <r>   -6.4893    1.0000 </r>
       <r>   -6.4336    1.0000 </r>
       <r>   -6.3776    1.0000 </r>
       <r>   -6.3158    1.0000 </r>
       <r>   -5.7318    1.0000 </r>
       <r>   -5.7186    1.0000 </r>
       <r>   -5.6230    1.0000 </r>
       <r>   -4.9674    1.0000 </r>
       <r>   -4.9201    1.0000 </r>
       <r>   -4.8445    1.0000 </r>
       <r>   -4.7117    1.0000 </r>
       <r>   -4.6247    1.0000 </r>
       <r>   -4.5801    1.0000 </r>
       <r>   -4.5703    1.0000 </r>
       <r>   -4.5038    1.0000 </r>
       <r>   -4.4346    1.0000 </r>
       <r>   -4.1646    1.0000 </r>
       <r>   -4.1385    1.0000 </r>
       <r>   -4.1256    1.0000 </r>
       <r>   -4.0774    1.0000 </r>
       <r>   -4.0138    1.0000 </r>
       <r>   -3.9992    1.0000 </r>
       <r>   -3.9687    1.0000 </r>
       <r>   -3.8902    1.0000 </r>
       <r>   -3.8459    1.0000 </r>
       <r>   -3.8233    1.0000 </r>
       <r>   -3.6722    1.0000 </r>
       <r>   -3.6108    1.0000 </r>
       <r>   -3.6018    1.0000 </r>
       <r>   -3.5631    1.0000 </r>
       <r>   -3.4431    1.0000 </r>
       <r>   -3.2986    1.0000 </r>
       <r>   -3.1131    1.0000 </r>
       <r>   -2.9508    1.0000 </r>
       <r>   -2.8049    1.0000 </r>
       <r>   -2.7005    1.0000 </r>
       <r>   -2.4454    1.0000 </r>
       <r>   -2.4084    1.0000 </r>
       <r>   -2.2909    1.0000 </r>
       <r>   -2.1595    1.0000 </r>
       <r>   -2.0435    1.0000 </r>
       <r>   -1.9970    1.0000 </r>
       <r>   -1.9001    1.0000 </r>
       <r>   -1.8605    1.0000 </r>
       <r>   -1.8368    1.0000 </r>
       <r>   -1.7858    1.0000 </r>
       <r>   -1.7506    1.0000 </r>
       <r>   -1.6384    1.0000 </r>
       <r>   -1.5874    1.0000 </r>
       <r>   -1.5356    1.0000 </r>
       <r>   -1.4442    1.0000 </r>
       <r>   -1.2822    1.0015 </r>
       <r>   -1.2156    1.0056 </r>
       <r>   -1.1332    1.0189 </r>
       <r>   -1.0725    1.0322 </r>
       <r>   -1.0381    1.0354 </r>
       <r>   -0.9839    1.0184 </r>
       <r>   -0.9408    0.9696 </r>
       <r>   -0.8983    0.8791 </r>
       <r>   -0.8724    0.8018 </r>
       <r>   -0.7935    0.4939 </r>
       <r>   -0.7774    0.4261 </r>
       <r>   -0.7571    0.3426 </r>
       <r>   -0.7122    0.1806 </r>
       <r>   -0.6008   -0.0218 </r>
       <r>   -0.5234   -0.0332 </r>
       <r>   -0.4256   -0.0127 </r>
       <r>   -0.4080   -0.0098 </r>
       <r>   -0.3323   -0.0026 </r>
       <r>   -0.2946   -0.0011 </r>
       <r>    0.1944   -0.0000 </r>
       <r>    0.2524   -0.0000 </r>
       <r>    0.8275   -0.0000 </r>
       <r>    0.8557   -0.0000 </r>
       <r>    1.1078   -0.0000 </r>
       <r>    1.2927   -0.0000 </r>
       <r>    1.6106   -0.0000 </r>
       <r>    2.1717   -0.0000 </r>
       <r>    2.5122   -0.0000 </r>
       <r>    3.0449   -0.0000 </r>
       <r>    3.3872   -0.0000 </r>
      </set>
      <set comment="kpoint 5">
       <r>   -9.9806    1.0000 </r>
       <r>   -8.7105    1.0000 </r>
       <r>   -7.6537    1.0000 </r>
       <r>   -7.5199    1.0000 </r>
       <r>   -7.4286    1.0000 </r>
       <r>   -7.3503    1.0000 </r>
       <r>   -7.2311    1.0000 </r>
       <r>   -7.2129    1.0000 </r>
       <r>   -7.1677    1.0000 </r>
       <r>   -7.0896    1.0000 </r>
       <r>   -6.7391    1.0000 </r>
       <r>   -6.7114    1.0000 </r>
       <r>   -6.6994    1.0000 </r>
       <r>   -6.6945    1.0000 </r>
       <r>   -6.6401    1.0000 </r>
       <r>   -6.4853    1.0000 </r>
       <r>   -6.4362    1.0000 </r>
       <r>   -6.3786    1.0000 </r>
       <r>   -6.3136    1.0000 </r>
       <r>   -5.7416    1.0000 </r>
       <r>   -5.7123    1.0000 </r>
       <r>   -5.6187    1.0000 </r>
       <r>   -4.9815    1.0000 </r>
       <r>   -4.9061    1.0000 </r>
       <r>   -4.8428    1.0000 </r>
       <r>   -4.7188    1.0000 </r>
       <r>   -4.6385    1.0000 </r>
       <r>   -4.5783    1.0000 </r>
       <r>   -4.5446    1.0000 </r>
       <r>   -4.5226    1.0000 </r>
       <r>   -4.4227    1.0000 </r>
       <r>   -4.1729    1.0000 </r>
       <r>   -4.1404    1.0000 </r>
       <r>   -4.1364    1.0000 </r>
       <r>   -4.0634    1.0000 </r>
       <r>   -4.0263    1.0000 </r>
       <r>   -3.9835    1.0000 </r>
       <r>   -3.9778    1.0000 </r>
       <r>   -3.8832    1.0000 </r>
       <r>   -3.8420    1.0000 </r>
       <r>   -3.8154    1.0000 </r>
       <r>   -3.6677    1.0000 </r>
       <r>   -3.6225    1.0000 </r>
       <r>   -3.6044    1.0000 </r>
       <r>   -3.5445    1.0000 </r>
       <r>   -3.4653    1.0000 </r>
       <r>   -3.2776    1.0000 </r>
       <r>   -3.1254    1.0000 </r>
       <r>   -2.9516    1.0000 </r>
       <r>   -2.8288    1.0000 </r>
       <r>   -2.6802    1.0000 </r>
       <r>   -2.4503    1.0000 </r>
       <r>   -2.4070    1.0000 </r>
       <r>   -2.3188    1.0000 </r>
       <r>   -2.1403    1.0000 </r>
       <r>   -2.0260    1.0000 </r>
       <r>   -1.9783    1.0000 </r>
       <r>   -1.9362    1.0000 </r>
       <r>   -1.8611    1.0000 </r>
       <r>   -1.8355    1.0000 </r>
       <r>   -1.7644    1.0000 </r>
       <r>   -1.7371    1.0000 </r>
       <r>   -1.6517    1.0000 </r>
       <r>   -1.5960    1.0000 </r>
       <r>   -1.5135    1.0000 </r>
       <r>   -1.4437    1.0000 </r>
       <r>   -1.2842    1.0015 </r>
       <r>   -1.2238    1.0049 </r>
       <r>   -1.1543    1.0146 </r>
       <r>   -1.0707    1.0325 </r>
       <r>   -1.0566    1.0345 </r>
       <r>   -0.9898    1.0222 </r>
       <r>   -0.9372    0.9637 </r>
       <r>   -0.9096    0.9075 </r>
       <r>   -0.8594    0.7574 </r>
       <r>   -0.8107    0.5661 </r>
       <r>   -0.7749    0.4155 </r>
       <r>   -0.7232    0.2168 </r>
       <r>   -0.6979    0.1381 </r>
       <r>   -0.5716   -0.0334 </r>
       <r>   -0.5552   -0.0354 </r>
       <r>   -0.4510   -0.0177 </r>
       <r>   -0.3772   -0.0059 </r>
       <r>   -0.3256   -0.0022 </r>
       <r>   -0.3041   -0.0014 </r>
       <r>    0.1936   -0.0000 </r>
       <r>    0.2444   -0.0000 </r>
       <r>    0.8297   -0.0000 </r>
       <r>    0.8599   -0.0000 </r>
       <r>    1.1067   -0.0000 </r>
       <r>    1.2855   -0.0000 </r>
       <r>    1.6113   -0.0000 </r>
       <r>    2.1727   -0.0000 </r>
       <r>    2.5123   -0.0000 </r>
       <r>    3.0449   -0.0000 </r>
       <r>    3.3885   -0.0000 </r>
      </set>
      <set comment="kpoint 6">
       <r>   -9.5259    1.0000 </r>
       <r>   -8.2745    1.0000 </r>
       <r>   -7.5293    1.0000 </r>
       <r>   -7.2265    1.0000 </r>
       <r>   -7.1111    1.0000 </r>
       <r>   -7.0987    1.0000 </r>
       <r>   -7.0869    1.0000 </r>
       <r>   -6.8892    1.0000 </r>
       <r>   -6.8660    1.0000 </r>
       <r>   -6.7802    1.0000 </r>
       <r>   -6.6668    1.0000 </r>
       <r>   -6.4888    1.0000 </r>
       <r>   -6.4755    1.0000 </r>
       <r>   -6.4291    1.0000 </r>
       <r>   -6.3354    1.0000 </r>
       <r>   -6.2835    1.0000 </r>
       <r>   -6.1217    1.0000 </r>
       <r>   -6.0392    1.0000 </r>
       <r>   -5.9261    1.0000 </r>
       <r>   -5.6192    1.0000 </r>
       <r>   -5.5669    1.0000 </r>
       <r>   -5.5092    1.0000 </r>
       <r>   -5.0916    1.0000 </r>
       <r>   -5.0256    1.0000 </r>
       <r>   -4.9556    1.0000 </r>
       <r>   -4.8261    1.0000 </r>
       <r>   -4.7978    1.0000 </r>
       <r>   -4.6835    1.0000 </r>
       <r>   -4.5073    1.0000 </r>
       <r>   -4.4653    1.0000 </r>
       <r>   -4.4032    1.0000 </r>
       <r>   -4.2875    1.0000 </r>
       <r>   -4.2463    1.0000 </r>
       <r>   -4.2104    1.0000 </r>
       <r>   -4.1355    1.0000 </r>
       <r>   -4.0736    1.0000 </r>
       <r>   -4.0087    1.0000 </r>
       <r>   -3.9322    1.0000 </r>
       <r>   -3.9113    1.0000 </r>
       <r>   -3.8561    1.0000 </r>
       <r>   -3.8346    1.0000 </r>
       <r>   -3.7820    1.0000 </r>
       <r>   -3.7581    1.0000 </r>
       <r>   -3.7165    1.0000 </r>
       <r>   -3.6046    1.0000 </r>
       <r>   -3.5281    1.0000 </r>
       <r>   -3.4467    1.0000 </r>
       <r>   -3.2905    1.0000 </r>
       <r>   -3.0563    1.0000 </r>
       <r>   -2.9902    1.0000 </r>
       <r>   -2.8783    1.0000 </r>
       <r>   -2.7983    1.0000 </r>
       <r>   -2.7296    1.0000 </r>
       <r>   -2.6784    1.0000 </r>
       <r>   -2.6092    1.0000 </r>
       <r>   -2.5756    1.0000 </r>
       <r>   -2.5431    1.0000 </r>
       <r>   -2.5004    1.0000 </r>
       <r>   -2.4649    1.0000 </r>
       <r>   -2.3725    1.0000 </r>
       <r>   -2.2066    1.0000 </r>
       <r>   -2.1008    1.0000 </r>
       <r>   -2.0786    1.0000 </r>
       <r>   -1.9304    1.0000 </r>
       <r>   -1.8792    1.0000 </r>
       <r>   -1.8211    1.0000 </r>
       <r>   -1.6945    1.0000 </r>
       <r>   -1.5983    1.0000 </r>
       <r>   -1.5356    1.0000 </r>
       <r>   -1.5121    1.0000 </r>
       <r>   -1.4610    1.0000 </r>
       <r>   -1.3734    1.0002 </r>
       <r>   -1.2704    1.0020 </r>
       <r>   -1.2121    1.0060 </r>
       <r>   -1.1564    1.0142 </r>
       <r>   -1.0920    1.0283 </r>
       <r>   -1.0439    1.0354 </r>
       <r>   -0.9942    1.0247 </r>
       <r>   -0.9130    0.9155 </r>
       <r>   -0.8384    0.6789 </r>
       <r>   -0.7788    0.4317 </r>
       <r>   -0.7135    0.1848 </r>
       <r>   -0.6180   -0.0087 </r>
       <r>   -0.5954   -0.0249 </r>
       <r>   -0.3572   -0.0041 </r>
       <r>    0.3039   -0.0000 </r>
       <r>    0.3820   -0.0000 </r>
       <r>    0.5659   -0.0000 </r>
       <r>    0.9231   -0.0000 </r>
       <r>    1.7438   -0.0000 </r>
       <r>    1.8860   -0.0000 </r>
       <r>    1.9324   -0.0000 </r>
       <r>    2.2795   -0.0000 </r>
       <r>    2.6825   -0.0000 </r>
       <r>    3.2066   -0.0000 </r>
       <r>    3.9300   -0.0000 </r>
      </set>
      <set comment="kpoint 7">
       <r>   -9.5259    1.0000 </r>
       <r>   -8.2747    1.0000 </r>
       <r>   -7.5283    1.0000 </r>
       <r>   -7.2308    1.0000 </r>
       <r>   -7.1086    1.0000 </r>
       <r>   -7.0994    1.0000 </r>
       <r>   -7.0857    1.0000 </r>
       <r>   -6.8911    1.0000 </r>
       <r>   -6.8601    1.0000 </r>
       <r>   -6.7856    1.0000 </r>
       <r>   -6.6649    1.0000 </r>
       <r>   -6.4907    1.0000 </r>
       <r>   -6.4723    1.0000 </r>
       <r>   -6.4375    1.0000 </r>
       <r>   -6.3283    1.0000 </r>
       <r>   -6.2832    1.0000 </r>
       <r>   -6.1223    1.0000 </r>
       <r>   -6.0322    1.0000 </r>
       <r>   -5.9328    1.0000 </r>
       <r>   -5.5987    1.0000 </r>
       <r>   -5.5816    1.0000 </r>
       <r>   -5.5151    1.0000 </r>
       <r>   -5.0935    1.0000 </r>
       <r>   -5.0331    1.0000 </r>
       <r>   -4.9403    1.0000 </r>
       <r>   -4.8262    1.0000 </r>
       <r>   -4.7757    1.0000 </r>
       <r>   -4.7144    1.0000 </r>
       <r>   -4.4983    1.0000 </r>
       <r>   -4.4696    1.0000 </r>
       <r>   -4.4096    1.0000 </r>
       <r>   -4.2722    1.0000 </r>
       <r>   -4.2463    1.0000 </r>
       <r>   -4.2222    1.0000 </r>
       <r>   -4.1123    1.0000 </r>
       <r>   -4.0773    1.0000 </r>
       <r>   -4.0160    1.0000 </r>
       <r>   -3.9306    1.0000 </r>
       <r>   -3.9128    1.0000 </r>
       <r>   -3.8572    1.0000 </r>
       <r>   -3.8120    1.0000 </r>
       <r>   -3.7959    1.0000 </r>
       <r>   -3.7749    1.0000 </r>
       <r>   -3.7181    1.0000 </r>
       <r>   -3.6523    1.0000 </r>
       <r>   -3.4986    1.0000 </r>
       <r>   -3.4375    1.0000 </r>
       <r>   -3.2859    1.0000 </r>
       <r>   -3.0353    1.0000 </r>
       <r>   -2.9950    1.0000 </r>
       <r>   -2.8751    1.0000 </r>
       <r>   -2.7895    1.0000 </r>
       <r>   -2.7355    1.0000 </r>
       <r>   -2.7076    1.0000 </r>
       <r>   -2.6016    1.0000 </r>
       <r>   -2.5703    1.0000 </r>
       <r>   -2.5326    1.0000 </r>
       <r>   -2.5015    1.0000 </r>
       <r>   -2.4661    1.0000 </r>
       <r>   -2.3654    1.0000 </r>
       <r>   -2.2058    1.0000 </r>
       <r>   -2.1402    1.0000 </r>
       <r>   -2.0713    1.0000 </r>
       <r>   -1.9331    1.0000 </r>
       <r>   -1.8728    1.0000 </r>
       <r>   -1.8017    1.0000 </r>
       <r>   -1.6873    1.0000 </r>
       <r>   -1.5956    1.0000 </r>
       <r>   -1.5772    1.0000 </r>
       <r>   -1.4925    1.0000 </r>
       <r>   -1.4509    1.0000 </r>
       <r>   -1.4069    1.0001 </r>
       <r>   -1.2637    1.0023 </r>
       <r>   -1.2097    1.0063 </r>
       <r>   -1.1293    1.0198 </r>
       <r>   -1.0878    1.0292 </r>
       <r>   -1.0476    1.0352 </r>
       <r>   -1.0014    1.0281 </r>
       <r>   -0.8901    0.8564 </r>
       <r>   -0.8410    0.6891 </r>
       <r>   -0.7850    0.4579 </r>
       <r>   -0.7578    0.3456 </r>
       <r>   -0.6373    0.0130 </r>
       <r>   -0.5122   -0.0313 </r>
       <r>   -0.4064   -0.0096 </r>
       <r>    0.3169   -0.0000 </r>
       <r>    0.3773   -0.0000 </r>
       <r>    0.5735   -0.0000 </r>
       <r>    0.9184   -0.0000 </r>
       <r>    1.7413   -0.0000 </r>
       <r>    1.8989   -0.0000 </r>
       <r>    1.9293   -0.0000 </r>
       <r>    2.2746   -0.0000 </r>
       <r>    2.6809   -0.0000 </r>
       <r>    3.2054   -0.0000 </r>
       <r>    3.9308   -0.0000 </r>
      </set>
      <set comment="kpoint 8">
       <r>   -9.5259    1.0000 </r>
       <r>   -8.2744    1.0000 </r>
       <r>   -7.5293    1.0000 </r>
       <r>   -7.2262    1.0000 </r>
       <r>   -7.1116    1.0000 </r>
       <r>   -7.1001    1.0000 </r>
       <r>   -7.0850    1.0000 </r>
       <r>   -6.8890    1.0000 </r>
       <r>   -6.8670    1.0000 </r>
       <r>   -6.7798    1.0000 </r>
       <r>   -6.6665    1.0000 </r>
       <r>   -6.4903    1.0000 </r>
       <r>   -6.4710    1.0000 </r>
       <r>   -6.4306    1.0000 </r>
       <r>   -6.3326    1.0000 </r>
       <r>   -6.2903    1.0000 </r>
       <r>   -6.1203    1.0000 </r>
       <r>   -6.0375    1.0000 </r>
       <r>   -5.9267    1.0000 </r>
       <r>   -5.6193    1.0000 </r>
       <r>   -5.5706    1.0000 </r>
       <r>   -5.5050    1.0000 </r>
       <r>   -5.0968    1.0000 </r>
       <r>   -5.0286    1.0000 </r>
       <r>   -4.9471    1.0000 </r>
       <r>   -4.8283    1.0000 </r>
       <r>   -4.8029    1.0000 </r>
       <r>   -4.6833    1.0000 </r>
       <r>   -4.5207    1.0000 </r>
       <r>   -4.4447    1.0000 </r>
       <r>   -4.4028    1.0000 </r>
       <r>   -4.2850    1.0000 </r>
       <r>   -4.2532    1.0000 </r>
       <r>   -4.2111    1.0000 </r>
       <r>   -4.1267    1.0000 </r>
       <r>   -4.0719    1.0000 </r>
       <r>   -4.0153    1.0000 </r>
       <r>   -3.9433    1.0000 </r>
       <r>   -3.8925    1.0000 </r>
       <r>   -3.8524    1.0000 </r>
       <r>   -3.8137    1.0000 </r>
       <r>   -3.7920    1.0000 </r>
       <r>   -3.7752    1.0000 </r>
       <r>   -3.7329    1.0000 </r>
       <r>   -3.6136    1.0000 </r>
       <r>   -3.4994    1.0000 </r>
       <r>   -3.4526    1.0000 </r>
       <r>   -3.2895    1.0000 </r>
       <r>   -3.0620    1.0000 </r>
       <r>   -2.9898    1.0000 </r>
       <r>   -2.8812    1.0000 </r>
       <r>   -2.7892    1.0000 </r>
       <r>   -2.7315    1.0000 </r>
       <r>   -2.6795    1.0000 </r>
       <r>   -2.5966    1.0000 </r>
       <r>   -2.5884    1.0000 </r>
       <r>   -2.5458    1.0000 </r>
       <r>   -2.5039    1.0000 </r>
       <r>   -2.4698    1.0000 </r>
       <r>   -2.3724    1.0000 </r>
       <r>   -2.2069    1.0000 </r>
       <r>   -2.1141    1.0000 </r>
       <r>   -2.0688    1.0000 </r>
       <r>   -1.9070    1.0000 </r>
       <r>   -1.8909    1.0000 </r>
       <r>   -1.8315    1.0000 </r>
       <r>   -1.6707    1.0000 </r>
       <r>   -1.5922    1.0000 </r>
       <r>   -1.5640    1.0000 </r>
       <r>   -1.5065    1.0000 </r>
       <r>   -1.4256    1.0000 </r>
       <r>   -1.3813    1.0001 </r>
       <r>   -1.2825    1.0015 </r>
       <r>   -1.2191    1.0053 </r>
       <r>   -1.1485    1.0157 </r>
       <r>   -1.1018    1.0261 </r>
       <r>   -1.0412    1.0355 </r>
       <r>   -0.9908    1.0228 </r>
       <r>   -0.9115    0.9120 </r>
       <r>   -0.8429    0.6963 </r>
       <r>   -0.7888    0.4737 </r>
       <r>   -0.7072    0.1652 </r>
       <r>   -0.6271    0.0005 </r>
       <r>   -0.5854   -0.0294 </r>
       <r>   -0.3583   -0.0042 </r>
       <r>    0.3027   -0.0000 </r>
       <r>    0.3832   -0.0000 </r>
       <r>    0.5649   -0.0000 </r>
       <r>    0.9214   -0.0000 </r>
       <r>    1.7433   -0.0000 </r>
       <r>    1.8922   -0.0000 </r>
       <r>    1.9279   -0.0000 </r>
       <r>    2.2797   -0.0000 </r>
       <r>    2.6815   -0.0000 </r>
       <r>    3.2071   -0.0000 </r>
       <r>    3.9312   -0.0000 </r>
      </set>
      <set comment="kpoint 9">
       <r>   -8.8853    1.0000 </r>
       <r>   -7.8974    1.0000 </r>
       <r>   -7.7124    1.0000 </r>
       <r>   -7.1328    1.0000 </r>
       <r>   -6.7770    1.0000 </r>
       <r>   -6.7568    1.0000 </r>
       <r>   -6.5987    1.0000 </r>
       <r>   -6.5538    1.0000 </r>
       <r>   -6.5405    1.0000 </r>
       <r>   -6.5172    1.0000 </r>
       <r>   -6.4661    1.0000 </r>
       <r>   -6.2208    1.0000 </r>
       <r>   -6.1678    1.0000 </r>
       <r>   -6.0625    1.0000 </r>
       <r>   -6.0354    1.0000 </r>
       <r>   -5.9738    1.0000 </r>
       <r>   -5.8221    1.0000 </r>
       <r>   -5.6795    1.0000 </r>
       <r>   -5.5197    1.0000 </r>
       <r>   -5.4264    1.0000 </r>
       <r>   -5.3851    1.0000 </r>
       <r>   -5.3416    1.0000 </r>
       <r>   -5.2922    1.0000 </r>
       <r>   -5.1809    1.0000 </r>
       <r>   -5.0609    1.0000 </r>
       <r>   -5.0200    1.0000 </r>
       <r>   -4.9469    1.0000 </r>
       <r>   -4.7602    1.0000 </r>
       <r>   -4.6953    1.0000 </r>
       <r>   -4.6588    1.0000 </r>
       <r>   -4.6430    1.0000 </r>
       <r>   -4.5009    1.0000 </r>
       <r>   -4.4319    1.0000 </r>
       <r>   -4.3878    1.0000 </r>
       <r>   -4.3342    1.0000 </r>
       <r>   -4.2318    1.0000 </r>
       <r>   -4.1376    1.0000 </r>
       <r>   -4.0735    1.0000 </r>
       <r>   -3.9799    1.0000 </r>
       <r>   -3.8912    1.0000 </r>
       <r>   -3.7921    1.0000 </r>
       <r>   -3.7685    1.0000 </r>
       <r>   -3.7048    1.0000 </r>
       <r>   -3.6552    1.0000 </r>
       <r>   -3.6425    1.0000 </r>
       <r>   -3.5729    1.0000 </r>
       <r>   -3.5519    1.0000 </r>
       <r>   -3.4953    1.0000 </r>
       <r>   -3.3924    1.0000 </r>
       <r>   -3.3350    1.0000 </r>
       <r>   -3.2989    1.0000 </r>
       <r>   -3.2587    1.0000 </r>
       <r>   -3.2048    1.0000 </r>
       <r>   -3.0069    1.0000 </r>
       <r>   -2.9822    1.0000 </r>
       <r>   -2.9351    1.0000 </r>
       <r>   -2.8518    1.0000 </r>
       <r>   -2.8065    1.0000 </r>
       <r>   -2.7560    1.0000 </r>
       <r>   -2.5493    1.0000 </r>
       <r>   -2.5012    1.0000 </r>
       <r>   -2.3959    1.0000 </r>
       <r>   -2.2980    1.0000 </r>
       <r>   -2.2589    1.0000 </r>
       <r>   -2.1992    1.0000 </r>
       <r>   -2.1605    1.0000 </r>
       <r>   -2.0446    1.0000 </r>
       <r>   -2.0228    1.0000 </r>
       <r>   -1.9508    1.0000 </r>
       <r>   -1.8653    1.0000 </r>
       <r>   -1.8064    1.0000 </r>
       <r>   -1.7529    1.0000 </r>
       <r>   -1.6778    1.0000 </r>
       <r>   -1.5387    1.0000 </r>
       <r>   -1.3989    1.0001 </r>
       <r>   -1.3043    1.0009 </r>
       <r>   -1.2237    1.0049 </r>
       <r>   -1.0925    1.0282 </r>
       <r>   -0.9355    0.9607 </r>
       <r>   -0.8757    0.8128 </r>
       <r>   -0.7812    0.4417 </r>
       <r>   -0.7011    0.1472 </r>
       <r>   -0.6199   -0.0070 </r>
       <r>   -0.5870   -0.0288 </r>
       <r>   -0.3466   -0.0034 </r>
       <r>   -0.1755   -0.0001 </r>
       <r>    0.7209   -0.0000 </r>
       <r>    1.0052   -0.0000 </r>
       <r>    1.0554   -0.0000 </r>
       <r>    1.8447   -0.0000 </r>
       <r>    1.9736   -0.0000 </r>
       <r>    2.0658   -0.0000 </r>
       <r>    2.4242   -0.0000 </r>
       <r>    3.0476   -0.0000 </r>
       <r>    3.5498   -0.0000 </r>
       <r>    4.0184   -0.0000 </r>
      </set>
      <set comment="kpoint 10">
       <r>   -8.8855    1.0000 </r>
       <r>   -7.8987    1.0000 </r>
       <r>   -7.7107    1.0000 </r>
       <r>   -7.1344    1.0000 </r>
       <r>   -6.7794    1.0000 </r>
       <r>   -6.7594    1.0000 </r>
       <r>   -6.5991    1.0000 </r>
       <r>   -6.5519    1.0000 </r>
       <r>   -6.5325    1.0000 </r>
       <r>   -6.5192    1.0000 </r>
       <r>   -6.4697    1.0000 </r>
       <r>   -6.2205    1.0000 </r>
       <r>   -6.1630    1.0000 </r>
       <r>   -6.0649    1.0000 </r>
       <r>   -6.0479    1.0000 </r>
       <r>   -5.9667    1.0000 </r>
       <r>   -5.8158    1.0000 </r>
       <r>   -5.6517    1.0000 </r>
       <r>   -5.5435    1.0000 </r>
       <r>   -5.4310    1.0000 </r>
       <r>   -5.3777    1.0000 </r>
       <r>   -5.3439    1.0000 </r>
       <r>   -5.2925    1.0000 </r>
       <r>   -5.1904    1.0000 </r>
       <r>   -5.0446    1.0000 </r>
       <r>   -5.0131    1.0000 </r>
       <r>   -4.9610    1.0000 </r>
       <r>   -4.7435    1.0000 </r>
       <r>   -4.7165    1.0000 </r>
       <r>   -4.6604    1.0000 </r>
       <r>   -4.6492    1.0000 </r>
       <r>   -4.5008    1.0000 </r>
       <r>   -4.4457    1.0000 </r>
       <r>   -4.3766    1.0000 </r>
       <r>   -4.3158    1.0000 </r>
       <r>   -4.2287    1.0000 </r>
       <r>   -4.1369    1.0000 </r>
       <r>   -4.0743    1.0000 </r>
       <r>   -3.9706    1.0000 </r>
       <r>   -3.8885    1.0000 </r>
       <r>   -3.8126    1.0000 </r>
       <r>   -3.7664    1.0000 </r>
       <r>   -3.7219    1.0000 </r>
       <r>   -3.6777    1.0000 </r>
       <r>   -3.6237    1.0000 </r>
       <r>   -3.5891    1.0000 </r>
       <r>   -3.5439    1.0000 </r>
       <r>   -3.4883    1.0000 </r>
       <r>   -3.3733    1.0000 </r>
       <r>   -3.3347    1.0000 </r>
       <r>   -3.2912    1.0000 </r>
       <r>   -3.2650    1.0000 </r>
       <r>   -3.2021    1.0000 </r>
       <r>   -3.0109    1.0000 </r>
       <r>   -2.9855    1.0000 </r>
       <r>   -2.9264    1.0000 </r>
       <r>   -2.8370    1.0000 </r>
       <r>   -2.8099    1.0000 </r>
       <r>   -2.7743    1.0000 </r>
       <r>   -2.5373    1.0000 </r>
       <r>   -2.5043    1.0000 </r>
       <r>   -2.3769    1.0000 </r>
       <r>   -2.3404    1.0000 </r>
       <r>   -2.2556    1.0000 </r>
       <r>   -2.1966    1.0000 </r>
       <r>   -2.1648    1.0000 </r>
       <r>   -2.0401    1.0000 </r>
       <r>   -2.0015    1.0000 </r>
       <r>   -1.9227    1.0000 </r>
       <r>   -1.8655    1.0000 </r>
       <r>   -1.8086    1.0000 </r>
       <r>   -1.7903    1.0000 </r>
       <r>   -1.6954    1.0000 </r>
       <r>   -1.5687    1.0000 </r>
       <r>   -1.3781    1.0001 </r>
       <r>   -1.2543    1.0027 </r>
       <r>   -1.2421    1.0035 </r>
       <r>   -1.1236    1.0211 </r>
       <r>   -0.9078    0.9032 </r>
       <r>   -0.8431    0.6971 </r>
       <r>   -0.8003    0.5226 </r>
       <r>   -0.7461    0.2997 </r>
       <r>   -0.6363    0.0116 </r>
       <r>   -0.5219   -0.0330 </r>
       <r>   -0.3791   -0.0061 </r>
       <r>   -0.1727   -0.0000 </r>
       <r>    0.7318   -0.0000 </r>
       <r>    1.0213   -0.0000 </r>
       <r>    1.0359   -0.0000 </r>
       <r>    1.8314   -0.0000 </r>
       <r>    1.9796   -0.0000 </r>
       <r>    2.0884   -0.0000 </r>
       <r>    2.4109   -0.0000 </r>
       <r>    3.0455   -0.0000 </r>
       <r>    3.5444   -0.0000 </r>
       <r>    4.0240   -0.0000 </r>
      </set>
      <set comment="kpoint 11">
       <r>   -8.8853    1.0000 </r>
       <r>   -7.8975    1.0000 </r>
       <r>   -7.7124    1.0000 </r>
       <r>   -7.1328    1.0000 </r>
       <r>   -6.7766    1.0000 </r>
       <r>   -6.7582    1.0000 </r>
       <r>   -6.5937    1.0000 </r>
       <r>   -6.5571    1.0000 </r>
       <r>   -6.5423    1.0000 </r>
       <r>   -6.5162    1.0000 </r>
       <r>   -6.4653    1.0000 </r>
       <r>   -6.2180    1.0000 </r>
       <r>   -6.1715    1.0000 </r>
       <r>   -6.0652    1.0000 </r>
       <r>   -6.0322    1.0000 </r>
       <r>   -5.9746    1.0000 </r>
       <r>   -5.8207    1.0000 </r>
       <r>   -5.6789    1.0000 </r>
       <r>   -5.5175    1.0000 </r>
       <r>   -5.4270    1.0000 </r>
       <r>   -5.3902    1.0000 </r>
       <r>   -5.3453    1.0000 </r>
       <r>   -5.2919    1.0000 </r>
       <r>   -5.1795    1.0000 </r>
       <r>   -5.0604    1.0000 </r>
       <r>   -5.0157    1.0000 </r>
       <r>   -4.9500    1.0000 </r>
       <r>   -4.7730    1.0000 </r>
       <r>   -4.6943    1.0000 </r>
       <r>   -4.6593    1.0000 </r>
       <r>   -4.6243    1.0000 </r>
       <r>   -4.4945    1.0000 </r>
       <r>   -4.4548    1.0000 </r>
       <r>   -4.3800    1.0000 </r>
       <r>   -4.3273    1.0000 </r>
       <r>   -4.2275    1.0000 </r>
       <r>   -4.1348    1.0000 </r>
       <r>   -4.0822    1.0000 </r>
       <r>   -3.9777    1.0000 </r>
       <r>   -3.8932    1.0000 </r>
       <r>   -3.8066    1.0000 </r>
       <r>   -3.7499    1.0000 </r>
       <r>   -3.7167    1.0000 </r>
       <r>   -3.6733    1.0000 </r>
       <r>   -3.6268    1.0000 </r>
       <r>   -3.5780    1.0000 </r>
       <r>   -3.5333    1.0000 </r>
       <r>   -3.4880    1.0000 </r>
       <r>   -3.3908    1.0000 </r>
       <r>   -3.3398    1.0000 </r>
       <r>   -3.2947    1.0000 </r>
       <r>   -3.2645    1.0000 </r>
       <r>   -3.2181    1.0000 </r>
       <r>   -3.0354    1.0000 </r>
       <r>   -2.9562    1.0000 </r>
       <r>   -2.9350    1.0000 </r>
       <r>   -2.8476    1.0000 </r>
       <r>   -2.7976    1.0000 </r>
       <r>   -2.7624    1.0000 </r>
       <r>   -2.5499    1.0000 </r>
       <r>   -2.4930    1.0000 </r>
       <r>   -2.3747    1.0000 </r>
       <r>   -2.3154    1.0000 </r>
       <r>   -2.2722    1.0000 </r>
       <r>   -2.2146    1.0000 </r>
       <r>   -2.1480    1.0000 </r>
       <r>   -2.0918    1.0000 </r>
       <r>   -1.9688    1.0000 </r>
       <r>   -1.9091    1.0000 </r>
       <r>   -1.8701    1.0000 </r>
       <r>   -1.8196    1.0000 </r>
       <r>   -1.7731    1.0000 </r>
       <r>   -1.6779    1.0000 </r>
       <r>   -1.5432    1.0000 </r>
       <r>   -1.3985    1.0001 </r>
       <r>   -1.3034    1.0010 </r>
       <r>   -1.2222    1.0050 </r>
       <r>   -1.0946    1.0277 </r>
       <r>   -0.9118    0.9127 </r>
       <r>   -0.8989    0.8807 </r>
       <r>   -0.7839    0.4530 </r>
       <r>   -0.6982    0.1388 </r>
       <r>   -0.6263   -0.0003 </r>
       <r>   -0.5790   -0.0316 </r>
       <r>   -0.3485   -0.0035 </r>
       <r>   -0.1749   -0.0001 </r>
       <r>    0.7210   -0.0000 </r>
       <r>    1.0192   -0.0000 </r>
       <r>    1.0396   -0.0000 </r>
       <r>    1.8431   -0.0000 </r>
       <r>    1.9830   -0.0000 </r>
       <r>    2.0589   -0.0000 </r>
       <r>    2.4242   -0.0000 </r>
       <r>    3.0475   -0.0000 </r>
       <r>    3.5499   -0.0000 </r>
       <r>    4.0191   -0.0000 </r>
      </set>
      <set comment="kpoint 12">
       <r>   -8.5337    1.0000 </r>
       <r>   -8.1935    1.0000 </r>
       <r>   -7.4561    1.0000 </r>
       <r>   -7.2481    1.0000 </r>
       <r>   -6.6708    1.0000 </r>
       <r>   -6.6520    1.0000 </r>
       <r>   -6.5308    1.0000 </r>
       <r>   -6.4681    1.0000 </r>
       <r>   -6.4263    1.0000 </r>
       <r>   -6.3489    1.0000 </r>
       <r>   -6.3230    1.0000 </r>
       <r>   -6.1936    1.0000 </r>
       <r>   -6.1271    1.0000 </r>
       <r>   -6.0038    1.0000 </r>
       <r>   -5.8740    1.0000 </r>
       <r>   -5.7618    1.0000 </r>
       <r>   -5.6805    1.0000 </r>
       <r>   -5.6226    1.0000 </r>
       <r>   -5.5657    1.0000 </r>
       <r>   -5.4560    1.0000 </r>
       <r>   -5.3562    1.0000 </r>
       <r>   -5.2574    1.0000 </r>
       <r>   -5.2263    1.0000 </r>
       <r>   -5.1876    1.0000 </r>
       <r>   -5.0997    1.0000 </r>
       <r>   -5.0632    1.0000 </r>
       <r>   -4.9929    1.0000 </r>
       <r>   -4.9005    1.0000 </r>
       <r>   -4.7396    1.0000 </r>
       <r>   -4.6966    1.0000 </r>
       <r>   -4.6484    1.0000 </r>
       <r>   -4.5752    1.0000 </r>
       <r>   -4.5260    1.0000 </r>
       <r>   -4.4715    1.0000 </r>
       <r>   -4.4082    1.0000 </r>
       <r>   -4.2462    1.0000 </r>
       <r>   -4.1244    1.0000 </r>
       <r>   -4.0773    1.0000 </r>
       <r>   -4.0359    1.0000 </r>
       <r>   -3.9677    1.0000 </r>
       <r>   -3.8886    1.0000 </r>
       <r>   -3.8466    1.0000 </r>
       <r>   -3.7846    1.0000 </r>
       <r>   -3.6934    1.0000 </r>
       <r>   -3.6662    1.0000 </r>
       <r>   -3.6432    1.0000 </r>
       <r>   -3.6140    1.0000 </r>
       <r>   -3.5801    1.0000 </r>
       <r>   -3.5538    1.0000 </r>
       <r>   -3.5239    1.0000 </r>
       <r>   -3.4384    1.0000 </r>
       <r>   -3.3371    1.0000 </r>
       <r>   -3.1215    1.0000 </r>
       <r>   -3.0575    1.0000 </r>
       <r>   -2.9611    1.0000 </r>
       <r>   -2.8744    1.0000 </r>
       <r>   -2.8392    1.0000 </r>
       <r>   -2.8110    1.0000 </r>
       <r>   -2.7015    1.0000 </r>
       <r>   -2.6175    1.0000 </r>
       <r>   -2.5028    1.0000 </r>
       <r>   -2.4715    1.0000 </r>
       <r>   -2.3574    1.0000 </r>
       <r>   -2.3397    1.0000 </r>
       <r>   -2.2870    1.0000 </r>
       <r>   -2.2235    1.0000 </r>
       <r>   -2.1757    1.0000 </r>
       <r>   -2.1229    1.0000 </r>
       <r>   -2.0174    1.0000 </r>
       <r>   -1.9847    1.0000 </r>
       <r>   -1.9266    1.0000 </r>
       <r>   -1.8845    1.0000 </r>
       <r>   -1.8089    1.0000 </r>
       <r>   -1.7046    1.0000 </r>
       <r>   -1.4515    1.0000 </r>
       <r>   -1.3235    1.0006 </r>
       <r>   -1.2518    1.0029 </r>
       <r>   -1.1004    1.0264 </r>
       <r>   -0.9107    0.9102 </r>
       <r>   -0.8766    0.8155 </r>
       <r>   -0.7056    0.1605 </r>
       <r>   -0.6748    0.0795 </r>
       <r>   -0.6064   -0.0181 </r>
       <r>   -0.5449   -0.0354 </r>
       <r>   -0.4020   -0.0089 </r>
       <r>   -0.3090   -0.0016 </r>
       <r>    0.7498   -0.0000 </r>
       <r>    1.0616   -0.0000 </r>
       <r>    1.3386   -0.0000 </r>
       <r>    1.6700   -0.0000 </r>
       <r>    1.8595   -0.0000 </r>
       <r>    2.0900   -0.0000 </r>
       <r>    2.4533   -0.0000 </r>
       <r>    3.5899   -0.0000 </r>
       <r>    3.6083   -0.0000 </r>
       <r>    4.0315   -0.0000 </r>
      </set>
      <set comment="kpoint 13">
       <r>   -8.5344    1.0000 </r>
       <r>   -8.1929    1.0000 </r>
       <r>   -7.4564    1.0000 </r>
       <r>   -7.2485    1.0000 </r>
       <r>   -6.6742    1.0000 </r>
       <r>   -6.6555    1.0000 </r>
       <r>   -6.5294    1.0000 </r>
       <r>   -6.4617    1.0000 </r>
       <r>   -6.4317    1.0000 </r>
       <r>   -6.3530    1.0000 </r>
       <r>   -6.3221    1.0000 </r>
       <r>   -6.1881    1.0000 </r>
       <r>   -6.1185    1.0000 </r>
       <r>   -6.0118    1.0000 </r>
       <r>   -5.8704    1.0000 </r>
       <r>   -5.7582    1.0000 </r>
       <r>   -5.6787    1.0000 </r>
       <r>   -5.6380    1.0000 </r>
       <r>   -5.5354    1.0000 </r>
       <r>   -5.4820    1.0000 </r>
       <r>   -5.3191    1.0000 </r>
       <r>   -5.2587    1.0000 </r>
       <r>   -5.2216    1.0000 </r>
       <r>   -5.2051    1.0000 </r>
       <r>   -5.1045    1.0000 </r>
       <r>   -5.0514    1.0000 </r>
       <r>   -5.0136    1.0000 </r>
       <r>   -4.8668    1.0000 </r>
       <r>   -4.7958    1.0000 </r>
       <r>   -4.6945    1.0000 </r>
       <r>   -4.6588    1.0000 </r>
       <r>   -4.5722    1.0000 </r>
       <r>   -4.5559    1.0000 </r>
       <r>   -4.4230    1.0000 </r>
       <r>   -4.3781    1.0000 </r>
       <r>   -4.2680    1.0000 </r>
       <r>   -4.1244    1.0000 </r>
       <r>   -4.0681    1.0000 </r>
       <r>   -4.0427    1.0000 </r>
       <r>   -3.9622    1.0000 </r>
       <r>   -3.8809    1.0000 </r>
       <r>   -3.8496    1.0000 </r>
[...]
       <r>   -4.4673    1.0000 </r>
       <r>   -4.4362    1.0000 </r>
       <r>   -4.3032    1.0000 </r>
       <r>   -4.2322    1.0000 </r>
       <r>   -4.1564    1.0000 </r>
       <r>   -4.1143    1.0000 </r>
       <r>   -4.0864    1.0000 </r>
       <r>   -4.0673    1.0000 </r>
       <r>   -3.9433    1.0000 </r>
       <r>   -3.8329    1.0000 </r>
       <r>   -3.7095    1.0000 </r>
       <r>   -3.6946    1.0000 </r>
       <r>   -3.6825    1.0000 </r>
       <r>   -3.6428    1.0000 </r>
       <r>   -3.6056    1.0000 </r>
       <r>   -3.5963    1.0000 </r>
       <r>   -3.5410    1.0000 </r>
       <r>   -3.3904    1.0000 </r>
       <r>   -3.2746    1.0000 </r>
       <r>   -3.1535    1.0000 </r>
       <r>   -2.9834    1.0000 </r>
       <r>   -2.9330    1.0000 </r>
       <r>   -2.8818    1.0000 </r>
       <r>   -2.8586    1.0000 </r>
       <r>   -2.7930    1.0000 </r>
       <r>   -2.6659    1.0000 </r>
       <r>   -2.5582    1.0000 </r>
       <r>   -2.5293    1.0000 </r>
       <r>   -2.4263    1.0000 </r>
       <r>   -2.3594    1.0000 </r>
       <r>   -2.3255    1.0000 </r>
       <r>   -2.2081    1.0000 </r>
       <r>   -2.1856    1.0000 </r>
       <r>   -2.1314    1.0000 </r>
       <r>   -2.0857    1.0000 </r>
       <r>   -2.0237    1.0000 </r>
       <r>   -1.9316    1.0000 </r>
       <r>   -1.9037    1.0000 </r>
       <r>   -1.7867    1.0000 </r>
       <r>   -1.7050    1.0000 </r>
       <r>   -1.6563    1.0000 </r>
       <r>   -1.4515    1.0000 </r>
       <r>   -1.3504    1.0003 </r>
       <r>   -1.2807    1.0016 </r>
       <r>   -1.1208    1.0217 </r>
       <r>   -0.9824    1.0173 </r>
       <r>   -0.9501    0.9835 </r>
       <r>   -0.7726    0.4057 </r>
       <r>   -0.7505    0.3168 </r>
       <r>   -0.6920    0.1217 </r>
       <r>   -0.4691   -0.0217 </r>
       <r>   -0.4145   -0.0108 </r>
       <r>   -0.3363   -0.0028 </r>
       <r>    0.2441   -0.0000 </r>
       <r>    0.4533   -0.0000 </r>
       <r>    1.4328   -0.0000 </r>
       <r>    1.5251   -0.0000 </r>
       <r>    1.6200   -0.0000 </r>
       <r>    2.3942   -0.0000 </r>
       <r>    3.1329   -0.0000 </r>
       <r>    3.4444   -0.0000 </r>
       <r>    3.9718   -0.0000 </r>
       <r>    3.9887   -0.0000 </r>
      </set>
     </set>
    </set>
   </array>
  </eigenvalues>
  <separator name="orbital magnetization" >
   <v name="MAGDIPOLOUT">      0.00000000      0.00000000      0.00000000</v>
  </separator>
  <dos>
   <i name="efermi">     -0.79498963 </i>
   <total>
    <array>
     <dimension dim="1">gridpoints</dimension>
     <dimension dim="2">spin</dimension>
     <field>energy</field>
     <field>total</field>
     <field>integrated</field>
     <set>
      <set comment="spin 1">
       <r>   -12.1851     0.0000     0.0000 </r>
       <r>   -12.1228     0.0000     0.0000 </r>
       <r>   -12.0604     0.0000     0.0000 </r>
       <r>   -11.9981     0.0000     0.0000 </r>
       <r>   -11.9357     0.0000     0.0000 </r>
       <r>   -11.8734     0.0000     0.0000 </r>
       <r>   -11.8111    -0.0000    -0.0000 </r>
       <r>   -11.7487    -0.0000    -0.0000 </r>
       <r>   -11.6864    -0.0000    -0.0000 </r>
       <r>   -11.6241    -0.0000    -0.0000 </r>
       <r>   -11.5617    -0.0000    -0.0000 </r>
       <r>   -11.4994    -0.0000    -0.0000 </r>
       <r>   -11.4370    -0.0000    -0.0000 </r>
       <r>   -11.3747    -0.0000    -0.0000 </r>
       <r>   -11.3124    -0.0000    -0.0000 </r>
       <r>   -11.2500    -0.0000    -0.0000 </r>
       <r>   -11.1877    -0.0000    -0.0000 </r>
       <r>   -11.1254    -0.0000    -0.0000 </r>
       <r>   -11.0630    -0.0000    -0.0000 </r>
       <r>   -11.0007    -0.0000    -0.0000 </r>
       <r>   -10.9383    -0.0000    -0.0000 </r>
       <r>   -10.8760    -0.0000    -0.0000 </r>
       <r>   -10.8137    -0.0000    -0.0000 </r>
       <r>   -10.7513    -0.0002    -0.0000 </r>
       <r>   -10.6890    -0.0010    -0.0001 </r>
       <r>   -10.6267    -0.0036    -0.0003 </r>
       <r>   -10.5643    -0.0099    -0.0009 </r>
       <r>   -10.5020    -0.0206    -0.0022 </r>
       <r>   -10.4397    -0.0283    -0.0040 </r>
       <r>   -10.3773    -0.0112    -0.0047 </r>
       <r>   -10.3150     0.0611    -0.0009 </r>
       <r>   -10.2526     0.2032     0.0118 </r>
       <r>   -10.1903     0.3943     0.0364 </r>
       <r>   -10.1280     0.5908     0.0732 </r>
       <r>   -10.0656     0.7584     0.1205 </r>
       <r>   -10.0033     0.8784     0.1752 </r>
       <r>    -9.9410     0.9330     0.2334 </r>
       <r>    -9.8786     0.9102     0.2901 </r>
       <r>    -9.8163     0.8300     0.3419 </r>
       <r>    -9.7539     0.7541     0.3889 </r>
       <r>    -9.6916     0.7581     0.4361 </r>
       <r>    -9.6293     0.8695     0.4903 </r>
       <r>    -9.5669     1.0203     0.5539 </r>
       <r>    -9.5046     1.0937     0.6221 </r>
       <r>    -9.4423     1.0394     0.6869 </r>
       <r>    -9.3799     0.9147     0.7439 </r>
       <r>    -9.3176     0.8041     0.7941 </r>
       <r>    -9.2552     0.7412     0.8403 </r>
       <r>    -9.1929     0.7346     0.8861 </r>
       <r>    -9.1306     0.8224     0.9373 </r>
       <r>    -9.0682     1.0400     1.0022 </r>
       <r>    -9.0059     1.3399     1.0857 </r>
       <r>    -8.9436     1.6011     1.1855 </r>
       <r>    -8.8812     1.7458     1.2943 </r>
       <r>    -8.8189     1.8054     1.4069 </r>
       <r>    -8.7565     1.8432     1.5218 </r>
       <r>    -8.6942     1.8541     1.6374 </r>
       <r>    -8.6319     1.7987     1.7495 </r>
       <r>    -8.5695     1.7151     1.8564 </r>
       <r>    -8.5072     1.7354     1.9646 </r>
       <r>    -8.4449     1.9664     2.0872 </r>
       <r>    -8.3825     2.3547     2.2339 </r>
       <r>    -8.3202     2.6821     2.4011 </r>
       <r>    -8.2578     2.7415     2.5720 </r>
       <r>    -8.1955     2.5363     2.7301 </r>
       <r>    -8.1332     2.2639     2.8713 </r>
       <r>    -8.0708     2.0976     3.0020 </r>
       <r>    -8.0085     2.0660     3.1308 </r>
       <r>    -7.9462     2.1798     3.2667 </r>
       <r>    -7.8838     2.5685     3.4268 </r>
       <r>    -7.8215     3.3551     3.6360 </r>
       <r>    -7.7591     4.3985     3.9101 </r>
       <r>    -7.6968     5.3130     4.2413 </r>
       <r>    -7.6345     5.8594     4.6066 </r>
       <r>    -7.5721     6.2427     4.9958 </r>
       <r>    -7.5098     6.8905     5.4253 </r>
       <r>    -7.4475     8.0080     5.9245 </r>
       <r>    -7.3851     9.4871     6.5159 </r>
       <r>    -7.3228    11.1129     7.2086 </r>
       <r>    -7.2604    12.6327     7.9961 </r>
       <r>    -7.1981    13.7000     8.8502 </r>
       <r>    -7.1358    13.9954     9.7226 </r>
       <r>    -7.0734    13.4871    10.5633 </r>
       <r>    -7.0111    12.5777    11.3474 </r>
       <r>    -6.9488    12.0008    12.0955 </r>
       <r>    -6.8864    12.4677    12.8727 </r>
       <r>    -6.8241    14.2396    13.7604 </r>
       <r>    -6.7618    16.9568    14.8174 </r>
       <r>    -6.6994    19.8951    16.0576 </r>
       <r>    -6.6371    22.4132    17.4548 </r>
       <r>    -6.5747    24.1599    18.9608 </r>
       <r>    -6.5124    24.9490    20.5161 </r>
       <r>    -6.4501    24.7007    22.0559 </r>
       <r>    -6.3877    23.6720    23.5315 </r>
       <r>    -6.3254    22.5277    24.9358 </r>
       <r>    -6.2631    21.8575    26.2984 </r>
       <r>    -6.2007    21.5959    27.6446 </r>
       <r>    -6.1384    21.0826    28.9588 </r>
       <r>    -6.0760    19.7442    30.1896 </r>
       <r>    -6.0137    17.6819    31.2919 </r>
       <r>    -5.9514    15.6245    32.2659 </r>
       <r>    -5.8890    14.3917    33.1630 </r>
       <r>    -5.8267    14.4055    34.0610 </r>
       <r>    -5.7644    15.5655    35.0313 </r>
       <r>    -5.7020    17.3823    36.1149 </r>
       <r>    -5.6397    19.1850    37.3108 </r>
       <r>    -5.5773    20.3776    38.5811 </r>
       <r>    -5.5150    20.6757    39.8700 </r>
       <r>    -5.4527    20.1817    41.1281 </r>
       <r>    -5.3903    19.3032    42.3314 </r>
       <r>    -5.3280    18.5917    43.4903 </r>
       <r>    -5.2657    18.4871    44.6428 </r>
       <r>    -5.2033    19.0606    45.8310 </r>
       <r>    -5.1410    20.0103    47.0783 </r>
       <r>    -5.0786    20.9094    48.3818 </r>
       <r>    -5.0163    21.4395    49.7183 </r>
       <r>    -4.9540    21.4967    51.0583 </r>
       <r>    -4.8916    21.2478    52.3828 </r>
       <r>    -4.8293    21.1045    53.6984 </r>
       <r>    -4.7670    21.5421    55.0413 </r>
       <r>    -4.7046    22.8384    56.4650 </r>
       <r>    -4.6423    24.8644    58.0150 </r>
       <r>    -4.5799    27.0171    59.6991 </r>
       <r>    -4.5176    28.4161    61.4705 </r>
       <r>    -4.4553    28.4546    63.2443 </r>
       <r>    -4.3929    27.4236    64.9538 </r>
       <r>    -4.3306    26.5182    66.6069 </r>
       <r>    -4.2683    26.9270    68.2855 </r>
       <r>    -4.2059    28.7796    70.0795 </r>
       <r>    -4.1436    31.0800    72.0169 </r>
       <r>    -4.0812    32.7015    74.0555 </r>
       <r>    -4.0189    33.3459    76.1342 </r>
       <r>    -3.9566    33.5343    78.2246 </r>
       <r>    -3.8942    33.8580    80.3352 </r>
       <r>    -3.8319    34.4136    82.4805 </r>
       <r>    -3.7696    34.9005    84.6561 </r>
       <r>    -3.7072    34.9972    86.8377 </r>
       <r>    -3.6449    34.4540    88.9855 </r>
       <r>    -3.5825    32.9649    91.0404 </r>
       <r>    -3.5202    30.3046    92.9295 </r>
       <r>    -3.4579    26.7056    94.5943 </r>
       <r>    -3.3955    22.8852    96.0209 </r>
       <r>    -3.3332    19.5783    97.2413 </r>
       <r>    -3.2709    17.1950    98.3132 </r>
       <r>    -3.2085    15.9993    99.3106 </r>
       <r>    -3.1462    16.3512   100.3299 </r>
       <r>    -3.0838    18.4641   101.4809 </r>
       <r>    -3.0215    21.9221   102.8474 </r>
       <r>    -2.9592    25.6210   104.4446 </r>
       <r>    -2.8968    28.2907   106.2081 </r>
       <r>    -2.8345    29.1187   108.0233 </r>
       <r>    -2.7722    28.0537   109.7721 </r>
       <r>    -2.7098    25.7750   111.3789 </r>
       <r>    -2.6475    23.3798   112.8363 </r>
       <r>    -2.5852    21.8048   114.1955 </r>
       <r>    -2.5228    21.3281   115.5251 </r>
       <r>    -2.4605    21.6123   116.8723 </r>
       <r>    -2.3981    22.1752   118.2547 </r>
       <r>    -2.3358    22.7603   119.6735 </r>
       <r>    -2.2735    23.3804   121.1310 </r>
       <r>    -2.2111    24.1512   122.6365 </r>
       <r>    -2.1488    25.0843   124.2002 </r>
       <r>    -2.0865    26.0564   125.8245 </r>
       <r>    -2.0241    26.9837   127.5066 </r>
       <r>    -1.9618    27.8362   129.2418 </r>
       <r>    -1.8994    28.3847   131.0112 </r>
       <r>    -1.8371    28.1992   132.7691 </r>
       <r>    -1.7748    27.1103   134.4591 </r>
       <r>    -1.7124    25.4811   136.0475 </r>
       <r>    -1.6501    23.8577   137.5347 </r>
       <r>    -1.5878    22.5296   138.9391 </r>
       <r>    -1.5254    21.5839   140.2846 </r>
       <r>    -1.4631    21.1955   141.6059 </r>
       <r>    -1.4007    21.5849   142.9514 </r>
       <r>    -1.3384    22.6823   144.3654 </r>
       <r>    -1.2761    24.0859   145.8668 </r>
       <r>    -1.2137    25.5030   147.4566 </r>
       <r>    -1.1514    27.0205   149.1410 </r>
       <r>    -1.0891    28.7422   150.9327 </r>
       <r>    -1.0267    30.3795   152.8265 </r>
       <r>    -0.9644    31.4320   154.7859 </r>
       <r>    -0.9020    31.5928   156.7553 </r>
       <r>    -0.8397    30.8339   158.6774 </r>
       <r>    -0.7774    29.3167   160.5049 </r>
       <r>    -0.7150    27.3165   162.2078 </r>
       <r>    -0.6527    25.0250   163.7677 </r>
       <r>    -0.5904    22.4436   165.1668 </r>
       <r>    -0.5280    19.6951   166.3946 </r>
       <r>    -0.4657    17.2744   167.4714 </r>
       <r>    -0.4033    15.5788   168.4425 </r>
       <r>    -0.3410    14.2893   169.3333 </r>
       <r>    -0.2787    12.6494   170.1218 </r>
       <r>    -0.2163    10.3702   170.7683 </r>
       <r>    -0.1540     7.9649   171.2648 </r>
       <r>    -0.0917     6.1873   171.6505 </r>
       <r>    -0.0293     5.3306   171.9828 </r>
       <r>     0.0330     5.0794   172.2994 </r>
       <r>     0.0954     4.9454   172.6077 </r>
       <r>     0.1577     4.7774   172.9055 </r>
       <r>     0.2200     4.7746   173.2031 </r>
       <r>     0.2824     5.0310   173.5168 </r>
       <r>     0.3447     5.2414   173.8435 </r>
       <r>     0.4070     4.9667   174.1531 </r>
       <r>     0.4694     4.1454   174.4115 </r>
       <r>     0.5317     3.2675   174.6152 </r>
       <r>     0.5941     3.0124   174.8030 </r>
       <r>     0.6564     3.7022   175.0338 </r>
       <r>     0.7187     5.0720   175.3499 </r>
       <r>     0.7811     6.4931   175.7547 </r>
       <r>     0.8434     7.3767   176.2145 </r>
       <r>     0.9057     7.4504   176.6790 </r>
       <r>     0.9681     6.8075   177.1033 </r>
       <r>     1.0304     5.7794   177.4636 </r>
       <r>     1.0928     4.7388   177.7590 </r>
       <r>     1.1551     3.9554   178.0056 </r>
       <r>     1.2174     3.5480   178.2268 </r>
       <r>     1.2798     3.5048   178.4452 </r>
       <r>     1.3421     3.7345   178.6780 </r>
       <r>     1.4044     4.1101   178.9343 </r>
       <r>     1.4668     4.4933   179.2144 </r>
       <r>     1.5291     4.7809   179.5124 </r>
       <r>     1.5914     4.9878   179.8233 </r>
       <r>     1.6538     5.2555   180.1509 </r>
       <r>     1.7161     5.6780   180.5049 </r>
       <r>     1.7785     6.0827   180.8841 </r>
       <r>     1.8408     6.0986   181.2642 </r>
       <r>     1.9031     5.5568   181.6106 </r>
       <r>     1.9655     4.7774   181.9084 </r>
       <r>     2.0278     4.3414   182.1791 </r>
       <r>     2.0901     4.5600   182.4633 </r>
       <r>     2.1525     5.2046   182.7878 </r>
       <r>     2.2148     5.7528   183.1464 </r>
       <r>     2.2772     5.8722   183.5124 </r>
       <r>     2.3395     5.6482   183.8645 </r>
       <r>     2.4018     5.3461   184.1978 </r>
       <r>     2.4642     5.0314   184.5114 </r>
       <r>     2.5265     4.5328   184.7940 </r>
       <r>     2.5888     3.7727   185.0292 </r>
       <r>     2.6512     3.0207   185.2175 </r>
       <r>     2.7135     2.7614   185.3896 </r>
       <r>     2.7759     3.3201   185.5966 </r>
       <r>     2.8382     4.5684   185.8814 </r>
       <r>     2.9005     5.9254   186.2507 </r>
       <r>     2.9629     6.6843   186.6674 </r>
       <r>     3.0252     6.4581   187.0700 </r>
       <r>     3.0875     5.4132   187.4074 </r>
       <r>     3.1499     4.1282   187.6648 </r>
       <r>     3.2122     3.2170   187.8653 </r>
       <r>     3.2746     2.9909   188.0518 </r>
       <r>     3.3369     3.3432   188.2602 </r>
       <r>     3.3992     3.8857   188.5024 </r>
       <r>     3.4616     4.2346   188.7664 </r>
       <r>     3.5239     4.2267   189.0299 </r>
       <r>     3.5862     3.9158   189.2740 </r>
       <r>     3.6486     3.4652   189.4900 </r>
       <r>     3.7109     3.1104   189.6839 </r>
       <r>     3.7733     3.0995   189.8771 </r>
       <r>     3.8356     3.4985   190.0952 </r>
       <r>     3.8979     4.0613   190.3483 </r>
       <r>     3.9603     4.3729   190.6209 </r>
       <r>     4.0226     4.1466   190.8794 </r>
       <r>     4.0849     3.4234   191.0928 </r>
       <r>     4.1473     2.5413   191.2513 </r>
       <r>     4.2096     1.8996   191.3697 </r>
       <r>     4.2720     1.6948   191.4753 </r>
       <r>     4.3343     1.8292   191.5893 </r>
       <r>     4.3966     2.0121   191.7148 </r>
       <r>     4.4590     1.9507   191.8364 </r>
       <r>     4.5213     1.5379   191.9322 </r>
       <r>     4.5836     0.9198   191.9896 </r>
       <r>     4.6460     0.3605   192.0121 </r>
       <r>     4.7083     0.0289   192.0139 </r>
       <r>     4.7707    -0.0823   192.0087 </r>
       <r>     4.8330    -0.0758   192.0040 </r>
       <r>     4.8953    -0.0412   192.0014 </r>
       <r>     4.9577    -0.0164   192.0004 </r>
       <r>     5.0200    -0.0051   192.0001 </r>
       <r>     5.0823    -0.0012   192.0000 </r>
       <r>     5.1447    -0.0002   192.0000 </r>
       <r>     5.2070    -0.0000   192.0000 </r>
       <r>     5.2693    -0.0000   192.0000 </r>
       <r>     5.3317    -0.0000   192.0000 </r>
       <r>     5.3940    -0.0000   192.0000 </r>
       <r>     5.4564    -0.0000   192.0000 </r>
       <r>     5.5187    -0.0000   192.0000 </r>
       <r>     5.5810    -0.0000   192.0000 </r>
       <r>     5.6434    -0.0000   192.0000 </r>
       <r>     5.7057    -0.0000   192.0000 </r>
       <r>     5.7680    -0.0000   192.0000 </r>
       <r>     5.8304     0.0000   192.0000 </r>
       <r>     5.8927     0.0000   192.0000 </r>
       <r>     5.9551     0.0000   192.0000 </r>
       <r>     6.0174     0.0000   192.0000 </r>
       <r>     6.0797     0.0000   192.0000 </r>
       <r>     6.1421     0.0000   192.0000 </r>
       <r>     6.2044     0.0000   192.0000 </r>
       <r>     6.2667     0.0000   192.0000 </r>
       <r>     6.3291     0.0000   192.0000 </r>
       <r>     6.3914     0.0000   192.0000 </r>
       <r>     6.4538     0.0000   192.0000 </r>
       <r>     6.5161     0.0000   192.0000 </r>
      </set>
     </set>
    </array>
   </total>
  </dos>
 </calculation>
 <structure name="finalpos" >
  <crystal>
   <varray name="basis" >
    <v>       5.55785930       0.00000000       0.00000000 </v>
    <v>       2.77892965       4.81324734       0.00000000 </v>
    <v>       0.00000000       0.00000000      30.80695967 </v>
   </varray>
   <i name="volume">    824.12780743 </i>
   <varray name="rec_basis" >
    <v>       0.17992539      -0.10387997       0.00000000 </v>
    <v>       0.00000000       0.20775994       0.00000000 </v>
    <v>       0.00000000       0.00000000       0.03246020 </v>
   </varray>
  </crystal>
  <varray name="positions" >
   <v>       0.00000000       0.00000000       0.38952237 </v>
   <v>       0.50000000       0.00000000       0.38952237 </v>
   <v>       0.00000000       0.50000000       0.38952237 </v>
   <v>       0.50000000       0.50000000       0.38952237 </v>
   <v>       0.16666667       0.16666667       0.46468540 </v>
   <v>       0.66666667       0.16666667       0.46468540 </v>
   <v>       0.16666667       0.66666667       0.46468540 </v>
   <v>       0.66666667       0.66666667       0.46468540 </v>
   <v>       0.83333333       0.33333333       0.53920296 </v>
   <v>       0.33333333       0.33333333       0.53920296 </v>
   <v>       0.33333333       0.83333333       0.53920296 </v>
   <v>       0.00000000       0.00000000       0.61486043 </v>
   <v>       0.50000000       0.00000000       0.61486043 </v>
   <v>       0.00000000       0.50000000       0.61486043 </v>
   <v>       0.50000000       0.50000000       0.61486043 </v>
   <v>       0.83333333       0.83333333       0.53920296 </v>
  </varray>
  <varray name="selective"  type="logical" >
   <v type="logical" >  F  F  F </v>
   <v type="logical" >  F  F  F </v>
   <v type="logical" >  F  F  F </v>
   <v type="logical" >  F  F  F </v>
   <v type="logical" >  T  T  T </v>
   <v type="logical" >  T  T  T </v>
   <v type="logical" >  T  T  T </v>
   <v type="logical" >  T  T  T </v>
   <v type="logical" >  T  T  T </v>
   <v type="logical" >  T  T  T </v>
   <v type="logical" >  T  T  T </v>
   <v type="logical" >  T  T  T </v>
   <v type="logical" >  T  T  T </v>
   <v type="logical" >  T  T  T </v>
   <v type="logical" >  T  T  T </v>
   <v type="logical" >  T  T  T </v>
  </varray>
  <nose>
   <v>      -3.00000000       0.00000000       0.00010000       0.00010000 </v>
  </nose>
 </structure>
</modeling>
