  16  16   0   0
  0.5150799E+02  0.5557859E-09  0.5557859E-09  0.3080696E-08  0.5000000E-15
  1.000000000000000E-004
  CAR 
 unknown system                          
      6.49846808    -12.18003806  301     -0.80345248      1.00000000
    -12.180  0.0000E+00  0.0000E+00
    -12.118  0.0000E+00  0.0000E+00
    -12.056  0.0000E+00  0.0000E+00
    -11.993  0.0000E+00  0.0000E+00
    -11.931  0.0000E+00  0.0000E+00
    -11.869  0.0000E+00  0.0000E+00
    -11.806 -0.4381E-28 -0.2728E-29
    -11.744 -0.6028E-26 -0.3780E-27
    -11.682 -0.6838E-24 -0.4296E-25
    -11.620 -0.6379E-22 -0.4015E-23
    -11.557 -0.4893E-20 -0.3086E-21
    -11.495 -0.3085E-18 -0.1951E-19
    -11.433 -0.1598E-16 -0.1015E-17
    -11.371 -0.6804E-15 -0.4338E-16
    -11.308 -0.2307E-13 -0.1480E-14
    -11.246 -0.6593E-12 -0.4253E-13
    -11.184 -0.1547E-10 -0.1005E-11
    -11.122 -0.2973E-09 -0.1952E-10
    -11.059 -0.4680E-08 -0.3109E-09
    -10.997 -0.6024E-07 -0.4062E-08
    -10.935 -0.6332E-06 -0.4349E-07
    -10.873 -0.5424E-05 -0.3812E-06
    -10.810 -0.3774E-04 -0.2731E-05
    -10.748 -0.2124E-03 -0.1596E-04
    -10.686 -0.9610E-03 -0.7579E-04
    -10.623 -0.3455E-02 -0.2909E-03
    -10.561 -0.9685E-02 -0.8939E-03
    -10.499 -0.2031E-01 -0.2158E-02
    -10.437 -0.2837E-01 -0.3924E-02
    -10.374 -0.1262E-01 -0.4710E-02
    -10.312  0.5720E-01 -0.1149E-02
    -10.250  0.1969E+00  0.1111E-01
    -10.188  0.3872E+00  0.3522E-01
    -10.125  0.5848E+00  0.7163E-01
    -10.063  0.7544E+00  0.1186E+00
    -10.001  0.8767E+00  0.1732E+00
     -9.939  0.9340E+00  0.2313E+00
     -9.876  0.9138E+00  0.2882E+00
     -9.814  0.8348E+00  0.3402E+00
     -9.752  0.7579E+00  0.3874E+00
     -9.690  0.7588E+00  0.4347E+00
     -9.627  0.8672E+00  0.4886E+00
     -9.565  0.1018E+01  0.5520E+00
     -9.503  0.1095E+01  0.6202E+00
     -9.441  0.1044E+01  0.6852E+00
     -9.378  0.9202E+00  0.7425E+00
     -9.316  0.8082E+00  0.7928E+00
     -9.254  0.7436E+00  0.8391E+00
     -9.191  0.7356E+00  0.8849E+00
     -9.129  0.8213E+00  0.9360E+00
     -9.067  0.1037E+01  0.1001E+01
     -9.005  0.1337E+01  0.1084E+01
     -8.942  0.1600E+01  0.1183E+01
     -8.880  0.1748E+01  0.1292E+01
     -8.818  0.1808E+01  0.1405E+01
     -8.756  0.1845E+01  0.1520E+01
     -8.693  0.1856E+01  0.1635E+01
     -8.631  0.1802E+01  0.1747E+01
     -8.569  0.1718E+01  0.1854E+01
     -8.507  0.1736E+01  0.1963E+01
     -8.444  0.1963E+01  0.2085E+01
     -8.382  0.2350E+01  0.2231E+01
     -8.320  0.2680E+01  0.2398E+01
     -8.258  0.2746E+01  0.2569E+01
     -8.195  0.2546E+01  0.2727E+01
     -8.133  0.2272E+01  0.2869E+01
     -8.071  0.2097E+01  0.2999E+01
     -8.009  0.2053E+01  0.3127E+01
     -7.946  0.2157E+01  0.3262E+01
     -7.884  0.2544E+01  0.3420E+01
     -7.822  0.3340E+01  0.3628E+01
     -7.759  0.4402E+01  0.3902E+01
     -7.697  0.5340E+01  0.4234E+01
     -7.635  0.5918E+01  0.4603E+01
     -7.573  0.6334E+01  0.4997E+01
     -7.510  0.6992E+01  0.5433E+01
     -7.448  0.8082E+01  0.5936E+01
     -7.386  0.9515E+01  0.6528E+01
     -7.324  0.1112E+02  0.7221E+01
     -7.261  0.1267E+02  0.8010E+01
     -7.199  0.1379E+02  0.8868E+01
     -7.137  0.1409E+02  0.9746E+01
     -7.075  0.1355E+02  0.1059E+02
     -7.012  0.1261E+02  0.1137E+02
     -6.950  0.1204E+02  0.1212E+02
     -6.888  0.1252E+02  0.1290E+02
     -6.826  0.1431E+02  0.1379E+02
     -6.763  0.1706E+02  0.1486E+02
     -6.701  0.2000E+02  0.1610E+02
     -6.639  0.2249E+02  0.1750E+02
     -6.576  0.2418E+02  0.1901E+02
     -6.514  0.2495E+02  0.2056E+02
     -6.452  0.2470E+02  0.2210E+02
     -6.390  0.2371E+02  0.2358E+02
     -6.327  0.2265E+02  0.2499E+02
     -6.265  0.2206E+02  0.2636E+02
     -6.203  0.2180E+02  0.2772E+02
     -6.141  0.2121E+02  0.2904E+02
     -6.078  0.1974E+02  0.3027E+02
     -6.016  0.1759E+02  0.3136E+02
     -5.954  0.1547E+02  0.3232E+02
     -5.892  0.1414E+02  0.3320E+02
     -5.829  0.1404E+02  0.3408E+02
     -5.767  0.1516E+02  0.3502E+02
     -5.705  0.1714E+02  0.3609E+02
     -5.643  0.1926E+02  0.3729E+02
     -5.580  0.2073E+02  0.3858E+02
     -5.518  0.2106E+02  0.3989E+02
     -5.456  0.2041E+02  0.4116E+02
     -5.394  0.1944E+02  0.4237E+02
     -5.331  0.1885E+02  0.4354E+02
     -5.269  0.1893E+02  0.4472E+02
     -5.207  0.1947E+02  0.4594E+02
     -5.144  0.2008E+02  0.4719E+02
     -5.082  0.2050E+02  0.4846E+02
     -5.020  0.2070E+02  0.4975E+02
     -4.958  0.2082E+02  0.5105E+02
     -4.895  0.2104E+02  0.5236E+02
     -4.833  0.2154E+02  0.5370E+02
     -4.771  0.2245E+02  0.5510E+02
     -4.709  0.2383E+02  0.5658E+02
     -4.646  0.2558E+02  0.5817E+02
     -4.584  0.2727E+02  0.5987E+02
     -4.522  0.2817E+02  0.6162E+02
     -4.460  0.2780E+02  0.6336E+02
     -4.397  0.2658E+02  0.6501E+02
     -4.335  0.2576E+02  0.6661E+02
     -4.273  0.2645E+02  0.6826E+02
     -4.211  0.2856E+02  0.7004E+02
     -4.148  0.3094E+02  0.7197E+02
     -4.086  0.3241E+02  0.7398E+02
     -4.024  0.3267E+02  0.7602E+02
     -3.961  0.3240E+02  0.7803E+02
     -3.899  0.3251E+02  0.8006E+02
     -3.837  0.3340E+02  0.8214E+02
     -3.775  0.3467E+02  0.8430E+02
     -3.712  0.3552E+02  0.8651E+02
     -3.650  0.3521E+02  0.8870E+02
     -3.588  0.3337E+02  0.9078E+02
     -3.526  0.3016E+02  0.9266E+02
     -3.463  0.2618E+02  0.9429E+02
     -3.401  0.2230E+02  0.9568E+02
     -3.339  0.1929E+02  0.9688E+02
     -3.277  0.1752E+02  0.9797E+02
     -3.214  0.1698E+02  0.9902E+02
     -3.152  0.1756E+02  0.1001E+03
     -3.090  0.1927E+02  0.1013E+03
     -3.028  0.2193E+02  0.1027E+03
     -2.965  0.2485E+02  0.1042E+03
     -2.903  0.2704E+02  0.1059E+03
     -2.841  0.2780E+02  0.1076E+03
     -2.779  0.2712E+02  0.1093E+03
     -2.716  0.2550E+02  0.1109E+03
     -2.654  0.2366E+02  0.1124E+03
     -2.592  0.2228E+02  0.1138E+03
     -2.529  0.2170E+02  0.1151E+03
     -2.467  0.2180E+02  0.1165E+03
     -2.405  0.2221E+02  0.1179E+03
     -2.343  0.2270E+02  0.1193E+03
     -2.280  0.2321E+02  0.1207E+03
     -2.218  0.2385E+02  0.1222E+03
     -2.156  0.2475E+02  0.1238E+03
     -2.094  0.2580E+02  0.1254E+03
     -2.031  0.2680E+02  0.1270E+03
     -1.969  0.2767E+02  0.1288E+03
     -1.907  0.2837E+02  0.1305E+03
     -1.845  0.2860E+02  0.1323E+03
     -1.782  0.2787E+02  0.1340E+03
     -1.720  0.2618E+02  0.1357E+03
     -1.658  0.2416E+02  0.1372E+03
     -1.596  0.2240E+02  0.1386E+03
     -1.533  0.2097E+02  0.1399E+03
     -1.471  0.1982E+02  0.1411E+03
     -1.409  0.1943E+02  0.1423E+03
     -1.347  0.2059E+02  0.1436E+03
     -1.284  0.2338E+02  0.1451E+03
     -1.222  0.2681E+02  0.1467E+03
     -1.160  0.2963E+02  0.1486E+03
     -1.097  0.3131E+02  0.1505E+03
     -1.035  0.3207E+02  0.1525E+03
     -0.973  0.3238E+02  0.1545E+03
     -0.911  0.3253E+02  0.1566E+03
     -0.848  0.3242E+02  0.1586E+03
     -0.786  0.3152E+02  0.1605E+03
     -0.724  0.2938E+02  0.1624E+03
     -0.662  0.2625E+02  0.1640E+03
     -0.599  0.2306E+02  0.1654E+03
     -0.537  0.2036E+02  0.1667E+03
     -0.475  0.1786E+02  0.1678E+03
     -0.413  0.1504E+02  0.1688E+03
     -0.350  0.1201E+02  0.1695E+03
     -0.288  0.9371E+01  0.1701E+03
     -0.226  0.7546E+01  0.1706E+03
     -0.164  0.6534E+01  0.1710E+03
     -0.101  0.6156E+01  0.1713E+03
     -0.039  0.6192E+01  0.1717E+03
      0.023  0.6279E+01  0.1721E+03
      0.086  0.6026E+01  0.1725E+03
      0.148  0.5394E+01  0.1728E+03
      0.210  0.4802E+01  0.1731E+03
      0.272  0.4662E+01  0.1734E+03
      0.335  0.4879E+01  0.1737E+03
      0.397  0.4950E+01  0.1740E+03
      0.459  0.4539E+01  0.1743E+03
      0.521  0.3878E+01  0.1746E+03
      0.584  0.3543E+01  0.1748E+03
      0.646  0.3919E+01  0.1750E+03
      0.708  0.4906E+01  0.1753E+03
      0.770  0.6058E+01  0.1757E+03
      0.833  0.6892E+01  0.1761E+03
      0.895  0.7101E+01  0.1766E+03
      0.957  0.6671E+01  0.1770E+03
      1.019  0.5876E+01  0.1774E+03
      1.082  0.5074E+01  0.1777E+03
      1.144  0.4462E+01  0.1779E+03
      1.206  0.4035E+01  0.1782E+03
      1.268  0.3746E+01  0.1784E+03
      1.331  0.3637E+01  0.1787E+03
      1.393  0.3783E+01  0.1789E+03
      1.455  0.4165E+01  0.1792E+03
      1.518  0.4629E+01  0.1794E+03
      1.580  0.5050E+01  0.1798E+03
      1.642  0.5465E+01  0.1801E+03
      1.704  0.5948E+01  0.1805E+03
      1.767  0.6339E+01  0.1809E+03
      1.829  0.6279E+01  0.1813E+03
      1.891  0.5633E+01  0.1816E+03
      1.953  0.4778E+01  0.1819E+03
      2.016  0.4314E+01  0.1822E+03
      2.078  0.4510E+01  0.1824E+03
      2.140  0.5089E+01  0.1828E+03
      2.202  0.5527E+01  0.1831E+03
      2.265  0.5522E+01  0.1835E+03
      2.327  0.5217E+01  0.1838E+03
      2.389  0.4974E+01  0.1841E+03
      2.451  0.4919E+01  0.1844E+03
      2.514  0.4776E+01  0.1847E+03
      2.576  0.4227E+01  0.1850E+03
      2.638  0.3407E+01  0.1852E+03
      2.701  0.2923E+01  0.1854E+03
      2.763  0.3331E+01  0.1856E+03
      2.825  0.4605E+01  0.1858E+03
      2.887  0.6057E+01  0.1862E+03
      2.950  0.6811E+01  0.1866E+03
      3.012  0.6442E+01  0.1870E+03
      3.074  0.5254E+01  0.1874E+03
      3.136  0.3971E+01  0.1876E+03
      3.199  0.3192E+01  0.1878E+03
      3.261  0.3085E+01  0.1880E+03
      3.323  0.3435E+01  0.1882E+03
      3.385  0.3876E+01  0.1885E+03
      3.448  0.4131E+01  0.1887E+03
      3.510  0.4130E+01  0.1890E+03
      3.572  0.3909E+01  0.1892E+03
      3.634  0.3517E+01  0.1894E+03
      3.697  0.3104E+01  0.1896E+03
      3.759  0.2996E+01  0.1898E+03
      3.821  0.3423E+01  0.1900E+03
      3.883  0.4171E+01  0.1903E+03
      3.946  0.4669E+01  0.1906E+03
      4.008  0.4466E+01  0.1909E+03
      4.070  0.3602E+01  0.1911E+03
      4.133  0.2545E+01  0.1912E+03
      4.195  0.1805E+01  0.1914E+03
      4.257  0.1586E+01  0.1915E+03
      4.319  0.1740E+01  0.1916E+03
      4.382  0.1958E+01  0.1917E+03
      4.444  0.1961E+01  0.1918E+03
      4.506  0.1628E+01  0.1919E+03
      4.568  0.1057E+01  0.1920E+03
      4.631  0.4808E+00  0.1920E+03
      4.693  0.9460E-01  0.1920E+03
      4.755 -0.6528E-01  0.1920E+03
      4.817 -0.8130E-01  0.1920E+03
      4.880 -0.4964E-01  0.1920E+03
      4.942 -0.2133E-01  0.1920E+03
      5.004 -0.7007E-02  0.1920E+03
      5.066 -0.1817E-02  0.1920E+03
      5.129 -0.3779E-03  0.1920E+03
      5.191 -0.6358E-04  0.1920E+03
      5.253 -0.8704E-05  0.1920E+03
      5.315 -0.9726E-06  0.1920E+03
      5.378 -0.8893E-07  0.1920E+03
      5.440 -0.6664E-08  0.1920E+03
      5.502 -0.4097E-09  0.1920E+03
      5.565 -0.2068E-10  0.1920E+03
      5.627 -0.8584E-12  0.1920E+03
      5.689 -0.2920E-13  0.1920E+03
      5.751 -0.6687E-15  0.1920E+03
      5.814  0.0000E+00  0.1920E+03
      5.876  0.0000E+00  0.1920E+03
      5.938  0.0000E+00  0.1920E+03
      6.000  0.0000E+00  0.1920E+03
      6.063  0.0000E+00  0.1920E+03
      6.125  0.0000E+00  0.1920E+03
      6.187  0.0000E+00  0.1920E+03
      6.249  0.0000E+00  0.1920E+03
      6.312  0.0000E+00  0.1920E+03
      6.374  0.0000E+00  0.1920E+03
      6.436  0.0000E+00  0.1920E+03
      6.498  0.0000E+00  0.1920E+03
