  16  16   0   0
  0.5150799E+02  0.5557859E-09  0.5557859E-09  0.3080696E-08  0.5000000E-15
  1.000000000000000E-004
  CAR 
 unknown system                          
      6.50903514    -12.19516347  301     -0.80298357      1.00000000
    -12.195  0.0000E+00  0.0000E+00
    -12.133  0.0000E+00  0.0000E+00
    -12.070  0.0000E+00  0.0000E+00
    -12.008  0.0000E+00  0.0000E+00
    -11.946  0.0000E+00  0.0000E+00
    -11.883  0.0000E+00  0.0000E+00
    -11.821 -0.4560E-28 -0.2843E-29
    -11.759 -0.6306E-26 -0.3960E-27
    -11.696 -0.7186E-24 -0.4520E-25
    -11.634 -0.6730E-22 -0.4241E-23
    -11.572 -0.5179E-20 -0.3272E-21
    -11.509 -0.3275E-18 -0.2074E-19
    -11.447 -0.1701E-16 -0.1081E-17
    -11.385 -0.7253E-15 -0.4630E-16
    -11.322 -0.2461E-13 -0.1581E-14
    -11.260 -0.7041E-12 -0.4548E-13
    -11.198 -0.1652E-10 -0.1075E-11
    -11.135 -0.3174E-09 -0.2086E-10
    -11.073 -0.4990E-08 -0.3320E-09
    -11.011 -0.6414E-07 -0.4331E-08
    -10.948 -0.6727E-06 -0.4627E-07
    -10.886 -0.5745E-05 -0.4044E-06
    -10.824 -0.3983E-04 -0.2888E-05
    -10.761 -0.2233E-03 -0.1681E-04
    -10.699 -0.1005E-02 -0.7945E-04
    -10.636 -0.3590E-02 -0.3033E-03
    -10.574 -0.9983E-02 -0.9257E-03
    -10.512 -0.2070E-01 -0.2216E-02
    -10.449 -0.2833E-01 -0.3983E-02
    -10.387 -0.1101E-01 -0.4669E-02
    -10.325  0.6156E-01 -0.8308E-03
    -10.262  0.2040E+00  0.1189E-01
    -10.200  0.3953E+00  0.3654E-01
    -10.138  0.5919E+00  0.7344E-01
    -10.075  0.7593E+00  0.1208E+00
    -10.013  0.8791E+00  0.1756E+00
     -9.951  0.9333E+00  0.2338E+00
     -9.888  0.9100E+00  0.2905E+00
     -9.826  0.8295E+00  0.3422E+00
     -9.764  0.7540E+00  0.3892E+00
     -9.701  0.7589E+00  0.4366E+00
     -9.639  0.8710E+00  0.4909E+00
     -9.577  0.1022E+01  0.5545E+00
     -9.514  0.1094E+01  0.6228E+00
     -9.452  0.1039E+01  0.6875E+00
     -9.390  0.9138E+00  0.7445E+00
     -9.327  0.8035E+00  0.7946E+00
     -9.265  0.7412E+00  0.8408E+00
     -9.202  0.7355E+00  0.8866E+00
     -9.140  0.8244E+00  0.9380E+00
     -9.078  0.1043E+01  0.1003E+01
     -9.015  0.1342E+01  0.1087E+01
     -8.953  0.1602E+01  0.1187E+01
     -8.891  0.1745E+01  0.1295E+01
     -8.828  0.1804E+01  0.1408E+01
     -8.766  0.1843E+01  0.1523E+01
     -8.704  0.1854E+01  0.1638E+01
     -8.641  0.1800E+01  0.1751E+01
     -8.579  0.1718E+01  0.1858E+01
     -8.517  0.1742E+01  0.1966E+01
     -8.454  0.1975E+01  0.2090E+01
     -8.392  0.2361E+01  0.2237E+01
     -8.330  0.2681E+01  0.2404E+01
     -8.267  0.2734E+01  0.2574E+01
     -8.205  0.2530E+01  0.2732E+01
     -8.143  0.2264E+01  0.2873E+01
     -8.080  0.2104E+01  0.3004E+01
     -8.018  0.2076E+01  0.3134E+01
     -7.956  0.2191E+01  0.3270E+01
     -7.893  0.2582E+01  0.3431E+01
     -7.831  0.3367E+01  0.3641E+01
     -7.769  0.4404E+01  0.3916E+01
     -7.706  0.5312E+01  0.4247E+01
     -7.644  0.5864E+01  0.4613E+01
     -7.581  0.6267E+01  0.5003E+01
     -7.519  0.6936E+01  0.5436E+01
     -7.457  0.8061E+01  0.5938E+01
     -7.394  0.9535E+01  0.6533E+01
     -7.332  0.1115E+02  0.7228E+01
     -7.270  0.1267E+02  0.8018E+01
     -7.207  0.1373E+02  0.8874E+01
     -7.145  0.1400E+02  0.9747E+01
     -7.083  0.1348E+02  0.1059E+02
     -7.020  0.1259E+02  0.1137E+02
     -6.958  0.1205E+02  0.1212E+02
     -6.896  0.1256E+02  0.1291E+02
     -6.833  0.1437E+02  0.1380E+02
     -6.771  0.1709E+02  0.1487E+02
     -6.709  0.2001E+02  0.1612E+02
     -6.646  0.2250E+02  0.1752E+02
     -6.584  0.2423E+02  0.1903E+02
     -6.522  0.2499E+02  0.2059E+02
     -6.459  0.2469E+02  0.2213E+02
     -6.397  0.2360E+02  0.2360E+02
     -6.335  0.2243E+02  0.2500E+02
     -6.272  0.2179E+02  0.2635E+02
     -6.210  0.2158E+02  0.2770E+02
     -6.147  0.2110E+02  0.2902E+02
     -6.085  0.1974E+02  0.3025E+02
     -6.023  0.1759E+02  0.3134E+02
     -5.960  0.1545E+02  0.3231E+02
     -5.898  0.1423E+02  0.3319E+02
     -5.836  0.1443E+02  0.3409E+02
     -5.773  0.1588E+02  0.3508E+02
     -5.711  0.1793E+02  0.3620E+02
     -5.649  0.1975E+02  0.3743E+02
     -5.586  0.2072E+02  0.3872E+02
     -5.524  0.2068E+02  0.4001E+02
     -5.462  0.1994E+02  0.4126E+02
     -5.399  0.1905E+02  0.4244E+02
     -5.337  0.1848E+02  0.4360E+02
     -5.275  0.1842E+02  0.4474E+02
     -5.212  0.1877E+02  0.4591E+02
     -5.150  0.1934E+02  0.4712E+02
     -5.088  0.2005E+02  0.4837E+02
     -5.025  0.2085E+02  0.4967E+02
     -4.963  0.2157E+02  0.5101E+02
     -4.901  0.2197E+02  0.5238E+02
     -4.838  0.2204E+02  0.5376E+02
     -4.776  0.2217E+02  0.5514E+02
     -4.713  0.2300E+02  0.5657E+02
     -4.651  0.2482E+02  0.5812E+02
     -4.589  0.2712E+02  0.5981E+02
     -4.526  0.2873E+02  0.6160E+02
     -4.464  0.2874E+02  0.6339E+02
     -4.402  0.2741E+02  0.6510E+02
     -4.339  0.2617E+02  0.6673E+02
     -4.277  0.2639E+02  0.6838E+02
     -4.215  0.2814E+02  0.7013E+02
     -4.152  0.3023E+02  0.7202E+02
     -4.090  0.3154E+02  0.7399E+02
     -4.028  0.3207E+02  0.7598E+02
     -3.965  0.3263E+02  0.7802E+02
     -3.903  0.3377E+02  0.8012E+02
     -3.841  0.3520E+02  0.8232E+02
     -3.778  0.3613E+02  0.8457E+02
     -3.716  0.3616E+02  0.8683E+02
     -3.654  0.3532E+02  0.8903E+02
     -3.591  0.3362E+02  0.9112E+02
     -3.529  0.3082E+02  0.9305E+02
     -3.467  0.2698E+02  0.9473E+02
     -3.404  0.2284E+02  0.9615E+02
     -3.342  0.1926E+02  0.9735E+02
     -3.279  0.1669E+02  0.9839E+02
     -3.217  0.1529E+02  0.9935E+02
     -3.155  0.1547E+02  0.1003E+03
     -3.092  0.1760E+02  0.1014E+03
     -3.030  0.2135E+02  0.1027E+03
     -2.968  0.2550E+02  0.1043E+03
     -2.905  0.2854E+02  0.1061E+03
     -2.843  0.2946E+02  0.1079E+03
     -2.781  0.2825E+02  0.1097E+03
     -2.718  0.2581E+02  0.1113E+03
     -2.656  0.2343E+02  0.1128E+03
     -2.594  0.2212E+02  0.1142E+03
     -2.531  0.2204E+02  0.1155E+03
     -2.469  0.2266E+02  0.1169E+03
     -2.407  0.2325E+02  0.1184E+03
     -2.344  0.2342E+02  0.1199E+03
     -2.282  0.2338E+02  0.1213E+03
     -2.220  0.2369E+02  0.1228E+03
     -2.157  0.2469E+02  0.1243E+03
     -2.095  0.2618E+02  0.1260E+03
     -2.033  0.2770E+02  0.1277E+03
     -1.970  0.2879E+02  0.1295E+03
     -1.908  0.2903E+02  0.1313E+03
     -1.846  0.2818E+02  0.1330E+03
     -1.783  0.2643E+02  0.1347E+03
     -1.721  0.2450E+02  0.1362E+03
     -1.658  0.2301E+02  0.1377E+03
     -1.596  0.2199E+02  0.1390E+03
     -1.534  0.2109E+02  0.1403E+03
     -1.471  0.2017E+02  0.1416E+03
     -1.409  0.1966E+02  0.1428E+03
     -1.347  0.2011E+02  0.1441E+03
     -1.284  0.2165E+02  0.1454E+03
     -1.222  0.2398E+02  0.1469E+03
     -1.160  0.2665E+02  0.1486E+03
     -1.097  0.2919E+02  0.1504E+03
     -1.035  0.3128E+02  0.1524E+03
     -0.973  0.3273E+02  0.1544E+03
     -0.910  0.3349E+02  0.1565E+03
     -0.848  0.3327E+02  0.1586E+03
     -0.786  0.3164E+02  0.1605E+03
     -0.723  0.2860E+02  0.1623E+03
     -0.661  0.2488E+02  0.1639E+03
     -0.599  0.2145E+02  0.1652E+03
     -0.536  0.1890E+02  0.1664E+03
     -0.474  0.1724E+02  0.1675E+03
     -0.412  0.1603E+02  0.1685E+03
     -0.349  0.1463E+02  0.1694E+03
     -0.287  0.1261E+02  0.1702E+03
     -0.224  0.1009E+02  0.1708E+03
     -0.162  0.7683E+01  0.1713E+03
     -0.100  0.6019E+01  0.1716E+03
     -0.037  0.5265E+01  0.1720E+03
      0.025  0.5072E+01  0.1723E+03
      0.087  0.4956E+01  0.1726E+03
      0.150  0.4778E+01  0.1729E+03
      0.212  0.4768E+01  0.1732E+03
      0.274  0.5050E+01  0.1735E+03
      0.337  0.5302E+01  0.1738E+03
      0.399  0.5032E+01  0.1741E+03
      0.461  0.4162E+01  0.1744E+03
      0.524  0.3219E+01  0.1746E+03
      0.586  0.2932E+01  0.1748E+03
      0.648  0.3639E+01  0.1750E+03
      0.711  0.5069E+01  0.1753E+03
      0.773  0.6572E+01  0.1757E+03
      0.835  0.7514E+01  0.1762E+03
      0.898  0.7566E+01  0.1767E+03
      0.960  0.6811E+01  0.1771E+03
      1.022  0.5667E+01  0.1775E+03
      1.085  0.4630E+01  0.1778E+03
      1.147  0.3990E+01  0.1780E+03
      1.210  0.3737E+01  0.1782E+03
      1.272  0.3695E+01  0.1785E+03
      1.334  0.3744E+01  0.1787E+03
      1.397  0.3897E+01  0.1789E+03
      1.459  0.4193E+01  0.1792E+03
      1.521  0.4581E+01  0.1795E+03
      1.584  0.4991E+01  0.1798E+03
      1.646  0.5439E+01  0.1801E+03
      1.708  0.5934E+01  0.1805E+03
      1.771  0.6275E+01  0.1809E+03
      1.833  0.6120E+01  0.1813E+03
      1.895  0.5392E+01  0.1816E+03
      1.958  0.4526E+01  0.1819E+03
      2.020  0.4154E+01  0.1822E+03
      2.082  0.4534E+01  0.1824E+03
      2.145  0.5328E+01  0.1828E+03
      2.207  0.5941E+01  0.1831E+03
      2.269  0.6038E+01  0.1835E+03
      2.332  0.5747E+01  0.1839E+03
      2.394  0.5371E+01  0.1842E+03
      2.456  0.4996E+01  0.1845E+03
      2.519  0.4462E+01  0.1848E+03
      2.581  0.3699E+01  0.1850E+03
      2.644  0.2961E+01  0.1852E+03
      2.706  0.2713E+01  0.1854E+03
      2.768  0.3288E+01  0.1856E+03
      2.831  0.4581E+01  0.1859E+03
      2.893  0.6004E+01  0.1863E+03
      2.955  0.6798E+01  0.1867E+03
      3.018  0.6535E+01  0.1871E+03
      3.080  0.5405E+01  0.1874E+03
      3.142  0.4051E+01  0.1877E+03
      3.205  0.3127E+01  0.1879E+03
      3.267  0.2935E+01  0.1881E+03
      3.329  0.3337E+01  0.1883E+03
      3.392  0.3918E+01  0.1885E+03
      3.454  0.4281E+01  0.1888E+03
      3.516  0.4259E+01  0.1890E+03
      3.579  0.3917E+01  0.1893E+03
      3.641  0.3440E+01  0.1895E+03
      3.703  0.3078E+01  0.1897E+03
      3.766  0.3076E+01  0.1899E+03
      3.828  0.3478E+01  0.1901E+03
      3.890  0.4031E+01  0.1903E+03
      3.953  0.4334E+01  0.1906E+03
      4.015  0.4123E+01  0.1909E+03
      4.077  0.3433E+01  0.1911E+03
      4.140  0.2576E+01  0.1912E+03
      4.202  0.1931E+01  0.1914E+03
      4.265  0.1705E+01  0.1915E+03
      4.327  0.1819E+01  0.1916E+03
      4.389  0.1996E+01  0.1917E+03
      4.452  0.1941E+01  0.1918E+03
      4.514  0.1540E+01  0.1919E+03
      4.576  0.9321E+00  0.1920E+03
      4.639  0.3759E+00  0.1920E+03
      4.701  0.4052E-01  0.1920E+03
      4.763 -0.7694E-01  0.1920E+03
      4.826 -0.7497E-01  0.1920E+03
      4.888 -0.4200E-01  0.1920E+03
      4.950 -0.1717E-01  0.1920E+03
      5.013 -0.5468E-02  0.1920E+03
      5.075 -0.1393E-02  0.1920E+03
      5.137 -0.2876E-03  0.1920E+03
      5.200 -0.4843E-04  0.1920E+03
      5.262 -0.6677E-05  0.1920E+03
      5.324 -0.7549E-06  0.1920E+03
      5.387 -0.7006E-07  0.1920E+03
      5.449 -0.5339E-08  0.1920E+03
      5.511 -0.3342E-09  0.1920E+03
      5.574 -0.1718E-10  0.1920E+03
      5.636 -0.7261E-12  0.1920E+03
      5.699 -0.2515E-13  0.1920E+03
      5.761 -0.6678E-15  0.1920E+03
      5.823  0.0000E+00  0.1920E+03
      5.886  0.0000E+00  0.1920E+03
      5.948  0.0000E+00  0.1920E+03
      6.010  0.0000E+00  0.1920E+03
      6.073  0.0000E+00  0.1920E+03
      6.135  0.0000E+00  0.1920E+03
      6.197  0.0000E+00  0.1920E+03
      6.260  0.0000E+00  0.1920E+03
      6.322  0.0000E+00  0.1920E+03
      6.384  0.0000E+00  0.1920E+03
      6.447  0.0000E+00  0.1920E+03
      6.509  0.0000E+00  0.1920E+03
