   16   16    1    1
  0.5150799E+02  0.5557859E-09  0.5557859E-09  0.3080696E-08  0.5000000E-15
  1.000000000000000E-004
  CAR 
 unknown system                          
    160     20     96
 
  0.6250000E-01  0.6250000E-01  0.0000000E+00  0.3125000E-01
    1      -10.195163   1.000000
    2       -8.921523   1.000000
    3       -7.867466   1.000000
    4       -7.726807   1.000000
    5       -7.458997   1.000000
    6       -7.434744   1.000000
    7       -7.426293   1.000000
    8       -7.303165   1.000000
    9       -7.288241   1.000000
   10       -7.287196   1.000000
   11       -6.841263   1.000000
   12       -6.813597   1.000000
   13       -6.808840   1.000000
   14       -6.800673   1.000000
   15       -6.790216   1.000000
   16       -6.608010   1.000000
   17       -6.561690   1.000000
   18       -6.549852   1.000000
   19       -6.503795   1.000000
   20       -5.794873   1.000000
   21       -5.793546   1.000000
   22       -5.708124   1.000000
   23       -4.941293   1.000000
   24       -4.933258   1.000000
   25       -4.841406   1.000000
   26       -4.678633   1.000000
   27       -4.655265   1.000000
   28       -4.646437   1.000000
   29       -4.585387   1.000000
   30       -4.480806   1.000000
   31       -4.339765   1.000000
   32       -4.296670   1.000000
   33       -4.168056   1.000000
   34       -4.159530   1.000000
   35       -4.046313   1.000000
   36       -4.011798   1.000000
   37       -3.985432   1.000000
   38       -3.952475   1.000000
   39       -3.926909   1.000000
   40       -3.854601   1.000000
   41       -3.770609   1.000000
   42       -3.760960   1.000000
   43       -3.499891   1.000000
   44       -3.470475   1.000000
   45       -3.468238   1.000000
   46       -3.172357   1.000000
   47       -3.136092   1.000000
   48       -2.938446   1.000000
   49       -2.931806   1.000000
   50       -2.806729   1.000000
   51       -2.762688   1.000000
   52       -2.310150   1.000000
   53       -2.306394   1.000000
   54       -2.123052   1.000000
   55       -2.104302   1.000000
   56       -1.872611   1.000000
   57       -1.861917   1.000000
   58       -1.716099   1.000000
   59       -1.701845   1.000000
   60       -1.580223   1.000000
   61       -1.560530   1.000001
   62       -1.552838   1.000001
   63       -1.332073   1.000590
   64       -1.127589   1.022004
   65       -1.119664   1.023834
   66       -1.078201   1.032610
   67       -1.039041   1.035134
   68       -0.974410   1.003254
   69       -0.960766   0.987156
   70       -0.889680   0.831408
   71       -0.836923   0.641341
   72       -0.813040   0.542492
   73       -0.777322   0.392402
   74       -0.773265   0.375775
   75       -0.727159   0.203295
   76       -0.627187  -0.007587
   77       -0.574361  -0.034313
   78       -0.556304  -0.035446
   79       -0.396186  -0.007152
   80       -0.364616  -0.004099
   81       -0.303805  -0.001179
   82       -0.218554  -0.000143
   83       -0.203764  -0.000095
   84       -0.159792  -0.000027
   85       -0.081615  -0.000002
   86        0.032617  -0.000000
   87        0.324237  -0.000000
   88        0.356902  -0.000000
   89        1.238409  -0.000000
   90        1.486350  -0.000000
   91        1.633432  -0.000000
   92        1.676291  -0.000000
   93        1.768895  -0.000000
   94        1.782185  -0.000000
   95        2.614904  -0.000000
   96        2.636003  -0.000000
 
  0.1875000E+00  0.6250000E-01  0.0000000E+00  0.6250000E-01
    1       -9.990704   1.000000
    2       -8.720065   1.000000
    3       -7.664014   1.000000
    4       -7.531279   1.000000
    5       -7.439632   1.000000
    6       -7.361469   1.000000
    7       -7.243357   1.000000
    8       -7.221347   1.000000
    9       -7.173866   1.000000
   10       -7.107969   1.000000
   11       -6.753489   1.000000
   12       -6.729268   1.000000
   13       -6.711860   1.000000
   14       -6.700106   1.000000
   15       -6.644288   1.000000
   16       -6.496492   1.000000
   17       -6.448833   1.000000
   18       -6.387431   1.000000
   19       -6.327277   1.000000
   20       -5.738817   1.000000
   21       -5.731422   1.000000
   22       -5.652686   1.000000
   23       -4.980248   1.000000
   24       -4.917444   1.000000
   25       -4.868752   1.000000
   26       -4.740169   1.000000
   27       -4.648113   1.000000
   28       -4.582704   1.000000
   29       -4.548296   1.000000
   30       -4.523410   1.000000
   31       -4.453902   1.000000
   32       -4.163907   1.000000
   33       -4.156373   1.000000
   34       -4.139920   1.000000
   35       -4.093697   1.000000
   36       -4.030727   1.000000
   37       -4.021773   1.000000
   38       -3.945431   1.000000
   39       -3.888392   1.000000
   40       -3.850983   1.000000
   41       -3.811273   1.000000
   42       -3.676362   1.000000
   43       -3.624386   1.000000
   44       -3.619581   1.000000
   45       -3.585353   1.000000
   46       -3.459190   1.000000
   47       -3.314520   1.000000
   48       -3.139652   1.000000
   49       -2.966660   1.000000
   50       -2.811504   1.000000
   51       -2.721776   1.000000
   52       -2.441976   1.000000
   53       -2.410941   1.000000
   54       -2.323996   1.000000
   55       -2.169580   1.000000
   56       -2.043136   1.000000
   57       -1.965109   1.000000
   58       -1.949618   1.000000
   59       -1.869056   1.000000
   60       -1.829302   1.000000
   61       -1.800626   1.000000
   62       -1.760192   1.000000
   63       -1.645679   1.000000
   64       -1.616316   1.000000
   65       -1.529167   1.000002
   66       -1.450106   1.000024
   67       -1.296587   1.001334
   68       -1.204191   1.007840
   69       -1.128938   1.021695
   70       -1.087468   1.030924
   71       -1.044424   1.035409
   72       -0.979986   1.008715
   73       -0.942842   0.959627
   74       -0.916495   0.904924
   75       -0.863467   0.743412
   76       -0.828907   0.608674
   77       -0.786905   0.432207
   78       -0.738130   0.240922
   79       -0.701346   0.125439
   80       -0.612819  -0.019242
   81       -0.521506  -0.031499
   82       -0.440055  -0.013875
   83       -0.415915  -0.009796
   84       -0.335946  -0.002342
   85       -0.318427  -0.001624
   86        0.189700  -0.000000
   87        0.243757  -0.000000
   88        0.825180  -0.000000
   89        0.842785  -0.000000
   90        1.099542  -0.000000
   91        1.285153  -0.000000
   92        1.602145  -0.000000
   93        2.163929  -0.000000
   94        2.503916  -0.000000
   95        3.036302  -0.000000
   96        3.381160  -0.000000
 
  0.3125000E+00  0.6250000E-01  0.0000000E+00  0.6250000E-01
    1       -9.536085   1.000000
    2       -8.284422   1.000000
    3       -7.539672   1.000000
    4       -7.240553   1.000000
    5       -7.120358   1.000000
    6       -7.108571   1.000000
    7       -7.097704   1.000000
    8       -6.904693   1.000000
    9       -6.870714   1.000000
   10       -6.797092   1.000000
   11       -6.678358   1.000000
   12       -6.505605   1.000000
   13       -6.483144   1.000000
   14       -6.445577   1.000000
   15       -6.339821   1.000000
   16       -6.292802   1.000000
   17       -6.136297   1.000000
   18       -6.044125   1.000000
   19       -5.944205   1.000000
   20       -5.617514   1.000000
   21       -5.592160   1.000000
   22       -5.533685   1.000000
   23       -5.105951   1.000000
   24       -5.042057   1.000000
   25       -4.949959   1.000000
   26       -4.839737   1.000000
   27       -4.796549   1.000000
   28       -4.716090   1.000000
   29       -4.526433   1.000000
   30       -4.481008   1.000000
   31       -4.419708   1.000000
   32       -4.302387   1.000000
   33       -4.249354   1.000000
   34       -4.233398   1.000000
   35       -4.133510   1.000000
   36       -4.077401   1.000000
   37       -4.005778   1.000000
   38       -3.936626   1.000000
   39       -3.918745   1.000000
   40       -3.851274   1.000000
   41       -3.816851   1.000000
   42       -3.790676   1.000000
   43       -3.774150   1.000000
   44       -3.753601   1.000000
   45       -3.618749   1.000000
   46       -3.539217   1.000000
   47       -3.470539   1.000000
   48       -3.299184   1.000000
   49       -3.053374   1.000000
   50       -2.994473   1.000000
   51       -2.891672   1.000000
   52       -2.816499   1.000000
   53       -2.725516   1.000000
   54       -2.691335   1.000000
   55       -2.613278   1.000000
   56       -2.580319   1.000000
   57       -2.545913   1.000000
   58       -2.514113   1.000000
   59       -2.478660   1.000000
   60       -2.383151   1.000000
   61       -2.218694   1.000000
   62       -2.148891   1.000000
   63       -2.051029   1.000000
   64       -1.956062   1.000000
   65       -1.917221   1.000000
   66       -1.845955   1.000000
   67       -1.684139   1.000000
   68       -1.593602   1.000000
   69       -1.578681   1.000000
   70       -1.507654   1.000004
   71       -1.460336   1.000017
   72       -1.411462   1.000074
   73       -1.279470   1.001927
   74       -1.190482   1.009732
   75       -1.118264   1.024158
   76       -1.072140   1.033553
   77       -1.045489   1.035435
   78       -1.009334   1.028116
   79       -0.883279   0.811301
   80       -0.829465   0.610970
   81       -0.794061   0.462285
   82       -0.767935   0.354193
   83       -0.653836   0.025165
   84       -0.537040  -0.033992
   85       -0.399791  -0.007590
   86        0.311339  -0.000000
   87        0.359814  -0.000000
   88        0.566401  -0.000000
   89        0.910238  -0.000000
   90        1.733160  -0.000000
   91        1.884227  -0.000000
   92        1.929011  -0.000000
   93        2.265449  -0.000000
   94        2.673749  -0.000000
   95        3.197027  -0.000000
   96        3.924352  -0.000000
 
  0.4375000E+00  0.6250000E-01  0.0000000E+00  0.6250000E-01
    1       -8.895802   1.000000
    2       -7.909635   1.000000
    3       -7.720670   1.000000
    4       -7.144676   1.000000
    5       -6.793252   1.000000
    6       -6.767845   1.000000
    7       -6.607994   1.000000
    8       -6.566840   1.000000
    9       -6.549024   1.000000
   10       -6.526584   1.000000
   11       -6.484901   1.000000
   12       -6.228424   1.000000
   13       -6.177848   1.000000
   14       -6.076843   1.000000
   15       -6.058141   1.000000
   16       -5.979325   1.000000
   17       -5.830231   1.000000
   18       -5.669552   1.000000
   19       -5.560511   1.000000
   20       -5.444766   1.000000
   21       -5.390958   1.000000
   22       -5.357257   1.000000
   23       -5.311216   1.000000
   24       -5.200257   1.000000
   25       -5.061696   1.000000
   26       -5.012219   1.000000
   27       -4.967130   1.000000
   28       -4.779380   1.000000
   29       -4.726764   1.000000
   30       -4.673903   1.000000
   31       -4.618400   1.000000
   32       -4.514237   1.000000
   33       -4.463609   1.000000
   34       -4.410608   1.000000
   35       -4.327266   1.000000
   36       -4.233523   1.000000
   37       -4.149484   1.000000
   38       -4.091997   1.000000
   39       -3.971600   1.000000
   40       -3.883608   1.000000
   41       -3.809836   1.000000
   42       -3.774155   1.000000
   43       -3.730019   1.000000
   44       -3.683693   1.000000
   45       -3.622946   1.000000
   46       -3.591706   1.000000
   47       -3.548982   1.000000
   48       -3.512169   1.000000
   49       -3.387766   1.000000
   50       -3.352587   1.000000
   51       -3.314913   1.000000
   52       -3.273834   1.000000
   53       -3.226467   1.000000
   54       -3.002251   1.000000
   55       -2.983365   1.000000
   56       -2.906628   1.000000
   57       -2.865481   1.000000
   58       -2.815432   1.000000
   59       -2.768472   1.000000
   60       -2.528367   1.000000
   61       -2.502096   1.000000
   62       -2.390004   1.000000
   63       -2.378392   1.000000
   64       -2.279477   1.000000
   65       -2.248521   1.000000
   66       -2.136210   1.000000
   67       -2.092282   1.000000
   68       -1.994345   1.000000
   69       -1.937046   1.000000
   70       -1.895099   1.000000
   71       -1.827713   1.000000
   72       -1.793666   1.000000
   73       -1.699635   1.000000
   74       -1.574390   1.000000
   75       -1.384748   1.000154
   76       -1.258290   1.002963
   77       -1.196218   1.008904
   78       -1.106790   1.026795
   79       -0.875737   0.786427
   80       -0.857481   0.721378
   81       -0.795784   0.469556
   82       -0.765900   0.346038
   83       -0.658342   0.032285
   84       -0.544204  -0.034788
   85       -0.373031  -0.004784
   86       -0.183476  -0.000054
   87        0.724431  -0.000000
   88        0.998136  -0.000000
   89        1.040303  -0.000000
   90        1.824884  -0.000000
   91        1.971539  -0.000000
   92        2.077539  -0.000000
   93        2.402444  -0.000000
   94        3.039779  -0.000000
   95        3.536456  -0.000000
   96        4.017241  -0.000000
 
 -0.4375000E+00  0.6250000E-01  0.0000000E+00  0.6250000E-01
    1       -8.544873   1.000000
    2       -8.203565   1.000000
    3       -7.466794   1.000000
    4       -7.258584   1.000000
    5       -6.691426   1.000000
    6       -6.660327   1.000000
    7       -6.538587   1.000000
    8       -6.481650   1.000000
    9       -6.440607   1.000000
   10       -6.369845   1.000000
   11       -6.331504   1.000000
   12       -6.197818   1.000000
   13       -6.130561   1.000000
   14       -6.023335   1.000000
   15       -5.884014   1.000000
   16       -5.772248   1.000000
   17       -5.693537   1.000000
   18       -5.654644   1.000000
   19       -5.545958   1.000000
   20       -5.496841   1.000000
   21       -5.340192   1.000000
   22       -5.279560   1.000000
   23       -5.246443   1.000000
   24       -5.214671   1.000000
   25       -5.127242   1.000000
   26       -5.037587   1.000000
   27       -5.018911   1.000000
   28       -4.886999   1.000000
   29       -4.804144   1.000000
   30       -4.685181   1.000000
   31       -4.645394   1.000000
   32       -4.589083   1.000000
   33       -4.566377   1.000000
   34       -4.450701   1.000000
   35       -4.406177   1.000000
   36       -4.267364   1.000000
   37       -4.138893   1.000000
   38       -4.085924   1.000000
   39       -4.054048   1.000000
   40       -3.964254   1.000000
   41       -3.902193   1.000000
   42       -3.850845   1.000000
   43       -3.778504   1.000000
   44       -3.714238   1.000000
   45       -3.691601   1.000000
   46       -3.647535   1.000000
   47       -3.623730   1.000000
   48       -3.586713   1.000000
   49       -3.570600   1.000000
   50       -3.516469   1.000000
   51       -3.446357   1.000000
   52       -3.358638   1.000000
   53       -3.112093   1.000000
   54       -3.063264   1.000000
   55       -2.957705   1.000000
   56       -2.923888   1.000000
   57       -2.818120   1.000000
   58       -2.766887   1.000000
   59       -2.692612   1.000000
   60       -2.642882   1.000000
   61       -2.541146   1.000000
   62       -2.486225   1.000000
   63       -2.398263   1.000000
   64       -2.349533   1.000000
   65       -2.281869   1.000000
   66       -2.250918   1.000000
   67       -2.144458   1.000000
   68       -2.130201   1.000000
   69       -2.059453   1.000000
   70       -2.002329   1.000000
   71       -1.945485   1.000000
   72       -1.926938   1.000000
   73       -1.848344   1.000000
   74       -1.705995   1.000000
   75       -1.456372   1.000019
   76       -1.292321   1.001465
   77       -1.210715   1.007042
   78       -1.113848   1.025179
   79       -0.868567   0.761657
   80       -0.818347   0.564798
   81       -0.793451   0.459716
   82       -0.700455   0.123039
   83       -0.593845  -0.029242
   84       -0.545606  -0.034912
   85       -0.419499  -0.010343
   86       -0.320657  -0.001703
   87        0.754091  -0.000000
   88        1.042198  -0.000000
   89        1.342404  -0.000000
   90        1.655624  -0.000000
   91        1.838361  -0.000000
   92        2.110573  -0.000000
   93        2.429642  -0.000000
   94        3.576754  -0.000000
   95        3.598320  -0.000000
   96        4.030907  -0.000000
 
 -0.3125000E+00  0.6250000E-01  0.0000000E+00  0.6250000E-01
    1       -9.232832   1.000000
    2       -8.009245   1.000000
    3       -7.680497   1.000000
    4       -7.109049   1.000000
    5       -6.984918   1.000000
    6       -6.932063   1.000000
    7       -6.846981   1.000000
    8       -6.716622   1.000000
    9       -6.693251   1.000000
   10       -6.637493   1.000000
   11       -6.632675   1.000000
   12       -6.353314   1.000000
   13       -6.327940   1.000000
   14       -6.254482   1.000000
   15       -6.204025   1.000000
   16       -6.134807   1.000000
   17       -5.964136   1.000000
   18       -5.846265   1.000000
   19       -5.730241   1.000000
   20       -5.523612   1.000000
   21       -5.485330   1.000000
   22       -5.446059   1.000000
   23       -5.217100   1.000000
   24       -5.163324   1.000000
   25       -5.004061   1.000000
   26       -4.935424   1.000000
   27       -4.855867   1.000000
   28       -4.766871   1.000000
   29       -4.613425   1.000000
   30       -4.574619   1.000000
   31       -4.462385   1.000000
   32       -4.399477   1.000000
   33       -4.324044   1.000000
   34       -4.276722   1.000000
   35       -4.222812   1.000000
   36       -4.168570   1.000000
   37       -4.115670   1.000000
   38       -4.098726   1.000000
   39       -3.981157   1.000000
   40       -3.859336   1.000000
   41       -3.814101   1.000000
   42       -3.759400   1.000000
   43       -3.730876   1.000000
   44       -3.665728   1.000000
   45       -3.588722   1.000000
   46       -3.554285   1.000000
   47       -3.470313   1.000000
   48       -3.274112   1.000000
   49       -3.220926   1.000000
   50       -3.130465   1.000000
   51       -3.112590   1.000000
   52       -3.036789   1.000000
   53       -2.999328   1.000000
   54       -2.967953   1.000000
   55       -2.906493   1.000000
   56       -2.835398   1.000000
   57       -2.791277   1.000000
   58       -2.761117   1.000000
   59       -2.701596   1.000000
   60       -2.571730   1.000000
   61       -2.335064   1.000000
   62       -2.262709   1.000000
   63       -2.211979   1.000000
   64       -2.124873   1.000000
   65       -2.070868   1.000000
   66       -2.030170   1.000000
   67       -1.944819   1.000000
   68       -1.816785   1.000000
   69       -1.802754   1.000000
   70       -1.746429   1.000000
   71       -1.662758   1.000000
   72       -1.544109   1.000001
   73       -1.509279   1.000004
   74       -1.337574   1.000517
   75       -1.295206   1.001375
   76       -1.168770   1.013344
   77       -1.109693   1.026134
   78       -1.070780   1.033745
   79       -0.969454   0.997867
   80       -0.884138   0.814054
   81       -0.812404   0.539814
   82       -0.786296   0.429661
   83       -0.667386   0.048048
   84       -0.541566  -0.034526
   85       -0.382936  -0.005706
   86        0.042848  -0.000000
   87        0.657542  -0.000000
   88        0.691916  -0.000000
   89        0.973028  -0.000000
   90        1.796584  -0.000000
   91        2.003657  -0.000000
   92        2.301568  -0.000000
   93        2.349395  -0.000000
   94        2.481506  -0.000000
   95        3.420576  -0.000000
   96        3.985808  -0.000000
 
 -0.1875000E+00  0.6250000E-01  0.0000000E+00  0.6250000E-01
    1       -9.791861   1.000000
    2       -8.527012   1.000000
    3       -7.472957   1.000000
    4       -7.466934   1.000000
    5       -7.344478   1.000000
    6       -7.248222   1.000000
    7       -7.167087   1.000000
    8       -7.087554   1.000000
    9       -7.038304   1.000000
   10       -6.960458   1.000000
   11       -6.713066   1.000000
   12       -6.634869   1.000000
   13       -6.612394   1.000000
   14       -6.594813   1.000000
   15       -6.504233   1.000000
   16       -6.405010   1.000000
   17       -6.312779   1.000000
   18       -6.234875   1.000000
   19       -6.152744   1.000000
   20       -5.686180   1.000000
   21       -5.671561   1.000000
   22       -5.600709   1.000000
   23       -5.033610   1.000000
   24       -4.938581   1.000000
   25       -4.895206   1.000000
   26       -4.810897   1.000000
   27       -4.717999   1.000000
   28       -4.594581   1.000000
   29       -4.524113   1.000000
   30       -4.496175   1.000000
   31       -4.462452   1.000000
   32       -4.233627   1.000000
   33       -4.187820   1.000000
   34       -4.161192   1.000000
   35       -4.085429   1.000000
   36       -4.001854   1.000000
   37       -3.977479   1.000000
   38       -3.932255   1.000000
   39       -3.916747   1.000000
   40       -3.830403   1.000000
   41       -3.807709   1.000000
   42       -3.764672   1.000000
   43       -3.726429   1.000000
   44       -3.678904   1.000000
   45       -3.620522   1.000000
   46       -3.488237   1.000000
   47       -3.471155   1.000000
   48       -3.300340   1.000000
   49       -2.986742   1.000000
   50       -2.884936   1.000000
   51       -2.754796   1.000000
   52       -2.587521   1.000000
   53       -2.524270   1.000000
   54       -2.470376   1.000000
   55       -2.357646   1.000000
   56       -2.328108   1.000000
   57       -2.215184   1.000000
   58       -2.169568   1.000000
   59       -2.141231   1.000000
   60       -2.088518   1.000000
   61       -2.002840   1.000000
   62       -1.895906   1.000000
   63       -1.875234   1.000000
   64       -1.838110   1.000000
   65       -1.802909   1.000000
   66       -1.619550   1.000000
   67       -1.482203   1.000009
   68       -1.387371   1.000144
   69       -1.336475   1.000531
   70       -1.288681   1.001584
   71       -1.216778   1.006357
   72       -1.188623   1.010012
   73       -1.106890   1.026773
   74       -1.044841   1.035420
   75       -1.027398   1.033598
   76       -0.969669   0.998112
   77       -0.928204   0.931383
   78       -0.857197   0.720318
   79       -0.828025   0.605046
   80       -0.748783   0.279728
   81       -0.672931   0.058704
   82       -0.597962  -0.027540
   83       -0.523204  -0.031812
   84       -0.434328  -0.012824
   85       -0.368644  -0.004416
   86        0.002687  -0.000000
   87        0.424154  -0.000000
   88        0.681957  -0.000000
   89        0.850315  -0.000000
   90        1.368988  -0.000000
   91        1.584422  -0.000000
   92        1.753361  -0.000000
   93        2.193669  -0.000000
   94        2.867511  -0.000000
   95        3.064323  -0.000000
   96        3.653329  -0.000000
 
 -0.6250000E-01  0.6250000E-01  0.0000000E+00  0.3125000E-01
    1      -10.126399   1.000000
    2       -8.853491   1.000000
    3       -7.798553   1.000000
    4       -7.660650   1.000000
    5       -7.437735   1.000000
    6       -7.427551   1.000000
    7       -7.359155   1.000000
    8       -7.267376   1.000000
    9       -7.261516   1.000000
   10       -7.220938   1.000000
   11       -6.808434   1.000000
   12       -6.781163   1.000000
   13       -6.777170   1.000000
   14       -6.769180   1.000000
   15       -6.740826   1.000000
   16       -6.570166   1.000000
   17       -6.526747   1.000000
   18       -6.492486   1.000000
   19       -6.447400   1.000000
   20       -5.775887   1.000000
   21       -5.772389   1.000000
   22       -5.689184   1.000000
   23       -4.951750   1.000000
   24       -4.926500   1.000000
   25       -4.849438   1.000000
   26       -4.693658   1.000000
   27       -4.634593   1.000000
   28       -4.626716   1.000000
   29       -4.570611   1.000000
   30       -4.519603   1.000000
   31       -4.379446   1.000000
   32       -4.247477   1.000000
   33       -4.154078   1.000000
   34       -4.123252   1.000000
   35       -4.088464   1.000000
   36       -4.025965   1.000000
   37       -3.975088   1.000000
   38       -3.953978   1.000000
   39       -3.911684   1.000000
   40       -3.890734   1.000000
   41       -3.777293   1.000000
   42       -3.713271   1.000000
   43       -3.565177   1.000000
   44       -3.524945   1.000000
   45       -3.507624   1.000000
   46       -3.291885   1.000000
   47       -3.189836   1.000000
   48       -3.029283   1.000000
   49       -2.936887   1.000000
   50       -2.795833   1.000000
   51       -2.727696   1.000000
   52       -2.358980   1.000000
   53       -2.340308   1.000000
   54       -2.187363   1.000000
   55       -2.117766   1.000000
   56       -1.897286   1.000000
   57       -1.884341   1.000000
   58       -1.781184   1.000000
   59       -1.746024   1.000000
   60       -1.717051   1.000000
   61       -1.645601   1.000000
   62       -1.630485   1.000000
   63       -1.406384   1.000085
   64       -1.339053   1.000498
   65       -1.283071   1.001786
   66       -1.209431   1.007194
   67       -1.171557   1.012839
   68       -1.008534   1.027773
   69       -0.972642   1.001392
   70       -0.947737   0.967897
   71       -0.918763   0.910320
   72       -0.871718   0.772672
   73       -0.859649   0.729435
   74       -0.795879   0.469958
   75       -0.748480   0.278599
   76       -0.696768   0.113312
   77       -0.641160   0.007657
   78       -0.635796   0.001321
   79       -0.542515  -0.034625
   80       -0.481107  -0.022632
   81       -0.453148  -0.016459
   82       -0.371230  -0.004630
   83       -0.303941  -0.001183
   84       -0.290647  -0.000875
   85        0.010661  -0.000000
   86        0.042571  -0.000000
   87        0.373702  -0.000000
   88        0.808642  -0.000000
   89        0.925542  -0.000000
   90        0.968390  -0.000000
   91        1.462339  -0.000000
   92        1.505169  -0.000000
   93        1.994556  -0.000000
   94        2.264416  -0.000000
   95        2.525464  -0.000000
   96        3.241091  -0.000000
 
  0.1875000E+00  0.1875000E+00  0.0000000E+00  0.3125000E-01
    1       -9.923889   1.000000
    2       -8.654940   1.000000
    3       -7.599138   1.000000
    4       -7.477510   1.000000
    5       -7.465523   1.000000
    6       -7.248402   1.000000
    7       -7.237984   1.000000
    8       -7.218215   1.000000
    9       -7.084370   1.000000
   10       -7.082990   1.000000
   11       -6.750245   1.000000
   12       -6.700318   1.000000
   13       -6.672966   1.000000
   14       -6.669312   1.000000
   15       -6.573350   1.000000
   16       -6.480944   1.000000
   17       -6.398979   1.000000
   18       -6.321417   1.000000
   19       -6.281902   1.000000
   20       -5.722828   1.000000
   21       -5.709794   1.000000
   22       -5.635009   1.000000
   23       -4.992642   1.000000
   24       -4.926227   1.000000
   25       -4.874140   1.000000
   26       -4.768920   1.000000
   27       -4.667329   1.000000
   28       -4.559313   1.000000
   29       -4.550373   1.000000
   30       -4.504167   1.000000
   31       -4.478809   1.000000
   32       -4.192965   1.000000
   33       -4.150148   1.000000
   34       -4.134951   1.000000
   35       -4.088021   1.000000
   36       -4.051988   1.000000
   37       -3.992285   1.000000
   38       -3.950324   1.000000
   39       -3.864886   1.000000
   40       -3.840579   1.000000
   41       -3.811233   1.000000
   42       -3.733020   1.000000
   43       -3.654141   1.000000
   44       -3.638606   1.000000
   45       -3.570358   1.000000
   46       -3.496998   1.000000
   47       -3.418296   1.000000
   48       -3.165353   1.000000
   49       -2.976588   1.000000
   50       -2.840272   1.000000
   51       -2.727294   1.000000
   52       -2.479479   1.000000
   53       -2.434848   1.000000
   54       -2.399975   1.000000
   55       -2.202859   1.000000
   56       -2.126717   1.000000
   57       -2.051152   1.000000
   58       -2.044902   1.000000
   59       -1.943110   1.000000
   60       -1.916832   1.000000
   61       -1.899958   1.000000
   62       -1.783853   1.000000
   63       -1.760427   1.000000
   64       -1.726643   1.000000
   65       -1.555900   1.000001
   66       -1.433763   1.000038
   67       -1.364217   1.000265
   68       -1.288131   1.001603
   69       -1.246148   1.003746
   70       -1.134936   1.020332
   71       -1.109766   1.026117
   72       -1.074801   1.033157
   73       -1.015843   1.030577
   74       -0.961857   0.988592
   75       -0.926584   0.927928
   76       -0.878861   0.796880
   77       -0.811086   0.534254
   78       -0.808587   0.523702
   79       -0.756345   0.308481
   80       -0.670384   0.053715
   81       -0.587089  -0.031530
   82       -0.524135  -0.031981
   83       -0.457631  -0.017397
   84       -0.410889  -0.009065
   85       -0.343345  -0.002719
   86       -0.208873  -0.000110
   87        0.783779  -0.000000
   88        0.878063  -0.000000
   89        0.896882  -0.000000
   90        1.039115  -0.000000
   91        1.504925  -0.000000
   92        1.536522  -0.000000
   93        2.200756  -0.000000
   94        2.250127  -0.000000
   95        3.196969  -0.000000
   96        3.681787  -0.000000
 
  0.3125000E+00  0.1875000E+00  0.0000000E+00  0.6250000E-01
    1       -9.598025   1.000000
    2       -8.341351   1.000000
    3       -7.421625   1.000000
    4       -7.288380   1.000000
    5       -7.273697   1.000000
    6       -7.165620   1.000000
    7       -7.068150   1.000000
    8       -6.982535   1.000000
    9       -6.902122   1.000000
   10       -6.820266   1.000000
   11       -6.639184   1.000000
   12       -6.558475   1.000000
   13       -6.517400   1.000000
   14       -6.482880   1.000000
   15       -6.429230   1.000000
   16       -6.276631   1.000000
   17       -6.204279   1.000000
   18       -6.094869   1.000000
   19       -5.975176   1.000000
   20       -5.628246   1.000000