 vasp.5.4.4.18Apr17-6-g9f103f2a35 (build Apr 28 2017 10:53:45) complex          
  
 executed on             LinuxIFC date 2020.02.17  09:19:49
 running on   24 total cores
 distrk:  each k-point on   24 cores,    1 groups
 distr:  one band on NCORES_PER_BAND=   1 cores,   24 groups


--------------------------------------------------------------------------------------------------------


 INCAR:
 POTCAR:    PAW_PBE Au 04Oct2007                  
 POTCAR:    PAW_PBE Pt 04Feb2005                  
 POTCAR:    PAW_PBE Ir 06Sep2000                  

 ----------------------------------------------------------------------------- 
|                                                                             |
|           W    W    AA    RRRRR   N    N  II  N    N   GGGG   !!!           |
|           W    W   A  A   R    R  NN   N  II  NN   N  G    G  !!!           |
|           W    W  A    A  R    R  N N  N  II  N N  N  G       !!!           |
|           W WW W  AAAAAA  RRRRR   N  N N  II  N  N N  G  GGG   !            |
|           WW  WW  A    A  R   R   N   NN  II  N   NN  G    G                |
|           W    W  A    A  R    R  N    N  II  N    N   GGGG   !!!           |
|                                                                             |
|      For optimal performance we recommend to set                            |
|        NCORE= 4 - approx SQRT( number of cores)                             |
|      NCORE specifies how many cores store one orbital (NPAR=cpu/NCORE).     |
|      This setting can  greatly improve the performance of VASP for DFT.     |
|      The default,   NCORE=1            might be grossly inefficient         |
|      on modern multi-core architectures or massively parallel machines.     |
|      Do your own testing !!!!                                               |
|      Unfortunately you need to use the default for GW and RPA calculations. |
|      (for HF NCORE is supported but not extensively tested yet)             |
|                                                                             |
 ----------------------------------------------------------------------------- 

 POTCAR:    PAW_PBE Au 04Oct2007                  
   SHA256 =  d0044ae04e2bdce24051b198fc5c053d722a5bc6fe3c3b100514a13fc5d2db88 Au
   COPYR  = (c) Copyright 04Oct2007 Georg Kresse                                
   COPYR  = This file is part of the software VASP. Any use, copying, and all ot
   COPYR  = If you do not have a valid VASP license, you may not use, copy or di
   VRHFIN =Au: s1d10                                                            
   LEXCH  = PE                                                                  
   EATOM  =   926.0867 eV,   68.0654 Ry                                         
                                                                                
   TITEL  = PAW_PBE Au 04Oct2007                                                
   LULTRA =        F    use ultrasoft PP ?                                      
   IUNSCR =        1    unscreen: 0-lin 1-nonlin 2-no                           
   RPACOR =    2.330    partial core radius                                     
   POMASS =  196.966; ZVAL   =   11.000    mass and valenz                      
   RCORE  =    2.500    outmost cutoff radius                                   
   RWIGS  =    2.840; RWIGS  =    1.503    wigner-seitz radius (au A)           
   ENMAX  =  229.943; ENMIN  =  172.457 eV                                      
   ICORE  =        3    local potential                                         
   LCOR   =        T    correct aug charges                                     
   LPAW   =        T    paw PP                                                  
   EAUG   =  356.670                                                            
   DEXC   =    0.000                                                            
   RMAX   =    2.562    core radius for proj-oper                               
   RAUG   =    1.300    factor for augmentation sphere                          
   RDEP   =    2.598    radius for radial grids                                 
   RDEPT  =    2.193    core radius for aug-charge                              
                                                                                
   Atomic configuration                                                         
   16 entries                                                                   
     n  l   j            E        occ.                                          
     1  0  0.50    -80748.5001   2.0000                                         
     2  0  0.50    -14244.7466   2.0000                                         
     2  1  1.50    -12310.9591   6.0000                                         
     3  0  0.50     -3362.1768   2.0000                                         
     3  1  1.50     -2801.5463   6.0000                                         
     3  2  2.50     -2203.8206  10.0000                                         
     4  0  0.50      -729.8168   2.0000                                         
     4  1  1.50      -546.0527   6.0000                                         
     4  2  2.50      -325.7302  10.0000                                         
     4  3  3.50       -81.1472  14.0000                                         
     5  0  0.50      -108.3201   2.0000                                         
     5  1  1.50       -59.7479   6.0000                                         
     5  2  2.50        -6.8783  10.0000                                         
     6  0  0.50        -5.7602   1.0000                                         
     6  1  1.50        -6.8029   0.0000                                         
     5  3  2.50        -1.3606   0.0000                                         
   Description                                                                  
     l       E           TYP  RCUT    TYP  RCUT                                 
     2     -6.8782861     23  2.500                                             
     2     -8.2388687     23  2.500                                             
     0     -5.7601759     23  2.500                                             
     0     -0.8493231     23  2.500                                             
     1     -2.7211652     23  2.500                                             
     1     27.2116520     23  2.500                                             
     3     -1.3605826     23  2.500                                             
  local pseudopotential read in
  partial core-charges read in
  partial kinetic energy density read in
  atomic valenz-charges read in
  non local Contribution for L=           2  read in
    real space projection operators read in
  non local Contribution for L=           2  read in
    real space projection operators read in
  non local Contribution for L=           0  read in
    real space projection operators read in
  non local Contribution for L=           0  read in
    real space projection operators read in
  non local Contribution for L=           1  read in
    real space projection operators read in
  non local Contribution for L=           1  read in
    real space projection operators read in
    PAW grid and wavefunctions read in
 
   number of l-projection  operators is LMAX  =           6
   number of lm-projection operators is LMMAX =          18
 
 POTCAR:    PAW_PBE Pt 04Feb2005                  
   SHA256 =  3ed90460adef76debcff1cfb73ee1349b515b1a3db03439735b44de3a8db7dc8 Pt
   COPYR  = (c) Copyright 04Feb2005 Georg Kresse                                
   COPYR  = This file is part of the software VASP. Any use, copying, and all ot
   COPYR  = If you do not have a valid VASP license, you may not use, copy or di
   VRHFIN =Pt: s1d9                                                             
   LEXCH  = PE                                                                  
   EATOM  =   729.1176 eV,   53.5886 Ry                                         
                                                                                
   TITEL  = PAW_PBE Pt 04Feb2005                                                
   LULTRA =        F    use ultrasoft PP ?                                      
   IUNSCR =        1    unscreen: 0-lin 1-nonlin 2-no                           
   RPACOR =    2.330    partial core radius                                     
   POMASS =  195.080; ZVAL   =   10.000    mass and valenz                      
   RCORE  =    2.600    outmost cutoff radius                                   
   RWIGS  =    2.750; RWIGS  =    1.455    wigner-seitz radius (au A)           
   ENMAX  =  230.283; ENMIN  =  172.712 eV                                      
   ICORE  =        3    local potential                                         
   LCOR   =        T    correct aug charges                                     
   LPAW   =        T    paw PP                                                  
   EAUG   =  358.966                                                            
   DEXC   =    0.000                                                            
   RMAX   =    2.658    core radius for proj-oper                               
   RAUG   =    1.300    factor for augmentation sphere                          
   RDEP   =    2.761    radius for radial grids                                 
   RDEPT  =    2.203    core radius for aug-charge                              
                                                                                
   Atomic configuration                                                         
   16 entries                                                                   
     n  l   j            E        occ.                                          
     1  0  0.50    -78401.1885   2.0000                                         
     2  0  0.50    -13770.7750   2.0000                                         
     2  1  1.50    -11931.0468   6.0000                                         
     3  0  0.50     -3234.7234   2.0000                                         
     3  1  1.50     -2699.2216   6.0000                                         
     3  2  2.50     -2119.5714  10.0000                                         
     4  0  0.50      -695.1528   2.0000                                         
     4  1  1.50      -519.6034   6.0000                                         
     4  2  2.50      -306.6786  10.0000                                         
     4  3  3.50       -70.1041  14.0000                                         
     5  0  0.50      -101.7747   2.0000                                         
     5  1  1.50       -55.9873   6.0000                                         
     5  2  2.50        -6.1423   9.0000                                         
     6  0  0.50        -5.6573   1.0000                                         
     6  1  1.50        -6.8029   0.0000                                         
     5  3  2.50        -1.3606   0.0000                                         
   Description                                                                  
     l       E           TYP  RCUT    TYP  RCUT                                 
     2     -6.1423404     23  2.500                                             
     2     -7.5029230     23  2.500                                             
     0     -5.6573207     23  2.500                                             
     0      0.7416693     23  2.500                                             
     1     -2.7211652     23  2.600                                             
     1     20.4087390     23  2.600                                             
     3     -1.3605826     23  2.500                                             
  local pseudopotential read in
  partial core-charges read in
  partial kinetic energy density read in
  atomic valenz-charges read in
  non local Contribution for L=           2  read in
    real space projection operators read in
  non local Contribution for L=           2  read in
    real space projection operators read in
  non local Contribution for L=           0  read in
    real space projection operators read in
  non local Contribution for L=           0  read in
    real space projection operators read in
  non local Contribution for L=           1  read in
    real space projection operators read in
  non local Contribution for L=           1  read in
    real space projection operators read in
    PAW grid and wavefunctions read in
 
   number of l-projection  operators is LMAX  =           6
   number of lm-projection operators is LMMAX =          18
 
 POTCAR:    PAW_PBE Ir 06Sep2000                  
   SHA256 =  7c6af8d4d487b237782eb51e6f62977b27a1da78c3c96acd1cebefd6c308f120 Ir
   COPYR  = (c) Copyright 06Sep2000 Georg Kresse                                
   COPYR  = This file is part of the software VASP. Any use, copying, and all ot
   COPYR  = If you do not have a valid VASP license, you may not use, copy or di
   VRHFIN =Ir: s1d8                                                             
   LEXCH  = PE                                                                  
   EATOM  =   560.1833 eV,   41.1723 Ry                                         
                                                                                
   TITEL  = PAW_PBE Ir 06Sep2000                                                
   LULTRA =        F    use ultrasoft PP ?                                      
   IUNSCR =        1    unscreen: 0-lin 1-nonlin 2-no                           
   RPACOR =    2.250    partial core radius                                     
   POMASS =  192.220; ZVAL   =    9.000    mass and valenz                      
   RCORE  =    2.600    outmost cutoff radius                                   
   RWIGS  =    2.690; RWIGS  =    1.423    wigner-seitz radius (au A)           
   ENMAX  =  210.864; ENMIN  =  158.148 eV                                      
   RCLOC  =    1.857    cutoff for local pot                                    
   LCOR   =        T    correct aug charges                                     
   LPAW   =        T    paw PP                                                  
   EAUG   =  318.962                                                            
   DEXC   =    0.000                                                            
   RMAX   =    2.667    core radius for proj-oper                               
   RAUG   =    1.300    factor for augmentation sphere                          
   RDEP   =    2.748    radius for radial grids                                 
   RDEPT  =    2.300    core radius for aug-charge                              
                                                                                
   Atomic configuration                                                         
   16 entries                                                                   
     n  l   j            E        occ.                                          
     1  0  0.50    -76100.0449   2.0000                                         
     2  0  0.50    -13308.1683   2.0000                                         
     2  1  1.50    -11558.0021   6.0000                                         
     3  0  0.50     -3110.7274   2.0000                                         
     3  1  1.50     -2599.2109   6.0000                                         
     3  2  2.50     -2037.1515  10.0000                                         
     4  0  0.50      -661.6001   2.0000                                         
     4  1  1.50      -493.8981   6.0000                                         
     4  2  2.50      -288.1909  10.0000                                         
     4  3  3.50       -59.5718  14.0000                                         
     5  0  0.50       -95.3879   2.0000                                         
     5  1  1.50       -52.2747   6.0000                                         
     5  2  2.50        -5.4180   8.0000                                         
     6  0  0.50        -5.5479   1.0000                                         
     6  1  1.50        -6.8029   0.0000                                         
     5  3  2.50        -1.3606   0.0000                                         
   Description                                                                  
     l       E           TYP  RCUT    TYP  RCUT                                 
     2     -5.4179967     23  2.600                                             
     2     -6.7785793     23  2.600                                             
     0     -5.5478636     23  2.600                                             
     0      2.2542272     23  2.600                                             
     1     -2.7211652     23  2.600                                             
     1     20.4087390     23  2.600                                             
  local pseudopotential read in
  partial core-charges read in
  partial kinetic energy density read in
  atomic valenz-charges read in
  non local Contribution for L=           2  read in
    real space projection operators read in
  non local Contribution for L=           2  read in
    real space projection operators read in
  non local Contribution for L=           0  read in
    real space projection operators read in
  non local Contribution for L=           0  read in
    real space projection operators read in
  non local Contribution for L=           1  read in
    real space projection operators read in
  non local Contribution for L=           1  read in
    real space projection operators read in
    PAW grid and wavefunctions read in
 
   number of l-projection  operators is LMAX  =           6
   number of lm-projection operators is LMMAX =          18
 
  PAW_PBE Au 04Oct2007                  :
 energy of atom  1       EATOM= -926.0867
 kinetic energy error for atom=    0.0152 (will be added to EATOM!!)
  PAW_PBE Pt 04Feb2005                  :
 energy of atom  2       EATOM= -729.1176
 kinetic energy error for atom=    0.0144 (will be added to EATOM!!)
  PAW_PBE Ir 06Sep2000                  :
 energy of atom  3       EATOM= -560.1833
 kinetic energy error for atom=    0.0056 (will be added to EATOM!!)
 
 
 POSCAR: Au Pt Ir                                
  positions in cartesian coordinates
  No initial velocities read in
 exchange correlation table for  LEXCH =        8
   RHO(1)=    0.500       N(1)  =     2000
   RHO(2)=  100.500       N(2)  =     4000
 


--------------------------------------------------------------------------------------------------------


 ion  position               nearest neighbor table
   1  0.000  0.000  0.390-   3 2.78   3 2.78   4 2.78   4 2.78   2 2.78   2 2.78   5 2.82   6 2.82
                             7 2.82
   2  0.500  0.000  0.390-   4 2.78   3 2.78   4 2.78   3 2.78   1 2.78   1 2.78   6 2.82   5 2.82
                             8 2.82
   3  0.000  0.500  0.390-   1 2.78   1 2.78   2 2.78   2 2.78   4 2.78   4 2.78   7 2.82   5 2.82
                             8 2.82
   4  0.500  0.500  0.390-   2 2.78   1 2.78   2 2.78   1 2.78   3 2.78   3 2.78   8 2.82   7 2.82
                             6 2.82
   5  0.167  0.167  0.465-   7 2.78   7 2.78   8 2.78   8 2.78   6 2.78   6 2.78   9 2.80  11 2.80
                            16 2.80   1 2.82   3 2.82   2 2.82
   6  0.667  0.167  0.465-   8 2.78   7 2.78   8 2.78   7 2.78   5 2.78   5 2.78  10 2.80  16 2.80
                             9 2.80   2 2.82   4 2.82   1 2.82
   7  0.167  0.667  0.465-   5 2.78   5 2.78   6 2.78   6 2.78   8 2.78   8 2.78  10 2.80  16 2.80
                            11 2.80   3 2.82   4 2.82   1 2.82
   8  0.667  0.667  0.465-   6 2.78   5 2.78   6 2.78   5 2.78   7 2.78   7 2.78   9 2.80  11 2.80
                            10 2.80   4 2.82   2 2.82   3 2.82
   9  0.833  0.333  0.539-  10 2.78  10 2.78  11 2.78  11 2.78  16 2.78  16 2.78   5 2.80   8 2.80
                             6 2.80  14 2.83  12 2.83  15 2.83
  10  0.833  0.833  0.539-   9 2.78   9 2.78  16 2.78  16 2.78  11 2.78  11 2.78   6 2.80   7 2.80
                             8 2.80  12 2.83  14 2.83  13 2.83
  11  0.333  0.833  0.539-  16 2.78   9 2.78  16 2.78   9 2.78  10 2.78  10 2.78   5 2.80   8 2.80
                             7 2.80  13 2.83  15 2.83  12 2.83
  12  0.000  0.000  0.615-  14 2.78  14 2.78  15 2.78  15 2.78  13 2.78  13 2.78  10 2.83   9 2.83
                            11 2.83
  13  0.500  0.000  0.615-  15 2.78  14 2.78  15 2.78  14 2.78  12 2.78  12 2.78  11 2.83  16 2.83
                            10 2.83
  14  0.000  0.500  0.615-  12 2.78  12 2.78  13 2.78  13 2.78  15 2.78  15 2.78   9 2.83  10 2.83
                            16 2.83
  15  0.500  0.500  0.615-  13 2.78  12 2.78  13 2.78  12 2.78  14 2.78  14 2.78  16 2.83  11 2.83
                             9 2.83
  16  0.333  0.333  0.539-  11 2.78  10 2.78  11 2.78  10 2.78   9 2.78   9 2.78   6 2.80   7 2.80
                             5 2.80  15 2.83  13 2.83  14 2.83
 
  LATTYP: Found a hexagonal cell.
 ALAT       =     5.5578593001
 C/A-ratio  =     5.5429542221
  
  Lattice vectors:
  
 A1 = (   2.7789296501,  -4.8132473446,   0.0000000000)
 A2 = (  -5.5578593001,   0.0000000000,   0.0000000000)
 A3 = (   0.0000000000,   0.0000000000, -30.8069596737)


Analysis of symmetry for initial positions (statically):
=====================================================================
 Subroutine PRICEL returns:
 Original cell was already a primitive cell.
 

 Routine SETGRP: Setting up the symmetry group for a 
 hexagonal supercell.


 Subroutine GETGRP returns: Found  6 space group operations
 (whereof  6 operations were pure point group operations)
 out of a pool of 24 trial point group operations.


The static configuration has the point symmetry C_3v.


Analysis of symmetry for dynamics (positions and initial velocities):
=====================================================================
 Subroutine PRICEL returns:
 Original cell was already a primitive cell.
 

 Routine SETGRP: Setting up the symmetry group for a 
 hexagonal supercell.


 Subroutine GETGRP returns: Found  6 space group operations
 (whereof  6 operations were pure point group operations)
 out of a pool of 24 trial point group operations.


The dynamic configuration has the point symmetry C_3v.


Analysis of constrained symmetry for selective dynamics:
=====================================================================
 Subroutine PRICEL returns:
 Original cell was already a primitive cell.
 

 Routine SETGRP: Setting up the symmetry group for a 
 hexagonal supercell.


 Subroutine GETGRP returns: Found  6 space group operations
 (whereof  6 operations were pure point group operations)
 out of a pool of 24 trial point group operations.


The constrained configuration has the point symmetry C_3v.


 Subroutine INISYM returns: Found  6 space group operations
 (whereof  6 operations are pure point group operations),
 and found     1 'primitive' translations

 
 
 KPOINTS: KPOINTS created by Atomic Simulation Env

Automatic generation of k-mesh.
Space group operators:
 irot       det(A)        alpha          n_x          n_y          n_z        tau_x        tau_y        tau_z
    1     1.000000     0.000001     1.000000     0.000000     0.000000     0.000000     0.000000     0.000000
    2     1.000000   120.000000     0.000000     0.000000     1.000000     0.000000     0.000000     0.000000
    3     1.000000   120.000000     0.000000     0.000000    -1.000000     0.000000     0.000000     0.000000
    4    -1.000000   180.000000     0.500000    -0.866025     0.000000     0.000000     0.000000     0.000000
    5    -1.000000   180.000000     1.000000     0.000000     0.000000     0.000000     0.000000     0.000000
    6    -1.000000   180.000000    -0.500000    -0.866025     0.000000     0.000000     0.000000     0.000000
 
 Subroutine IBZKPT returns following result:
 ===========================================
 
 Found     20 irreducible k-points:
 
 Following reciprocal coordinates:
            Coordinates               Weight
  0.062500  0.062500  0.000000     48.000000
  0.187500  0.062500  0.000000     96.000000
  0.312500  0.062500  0.000000     96.000000
  0.437500  0.062500  0.000000     96.000000
 -0.437500  0.062500  0.000000     96.000000
 -0.312500  0.062500  0.000000     96.000000
 -0.187500  0.062500  0.000000     96.000000
 -0.062500  0.062500  0.000000     48.000000
  0.187500  0.187500  0.000000     48.000000
  0.312500  0.187500  0.000000     96.000000
  0.437500  0.187500  0.000000     96.000000
 -0.437500  0.187500  0.000000     96.000000
 -0.312500  0.187500  0.000000     96.000000
 -0.187500  0.187500  0.000000     48.000000
  0.312500  0.312500  0.000000     48.000000
  0.437500  0.312500  0.000000     96.000000
 -0.437500  0.312500  0.000000     96.000000
 -0.312500  0.312500  0.000000     48.000000
  0.437500  0.437500  0.000000     48.000000
 -0.437500  0.437500  0.000000     48.000000
 
 Following cartesian coordinates:
            Coordinates               Weight
  0.011245  0.006492  0.000000     48.000000
  0.033736 -0.006492  0.000000     96.000000
  0.056227 -0.019477  0.000000     96.000000
  0.078717 -0.032462  0.000000     96.000000
 -0.078717  0.058432  0.000000     96.000000
 -0.056227  0.045447  0.000000     96.000000
 -0.033736  0.032462  0.000000     96.000000
 -0.011245  0.019477  0.000000     48.000000
  0.033736  0.019477  0.000000     48.000000
  0.056227  0.006492  0.000000     96.000000
  0.078717 -0.006492  0.000000     96.000000
 -0.078717  0.084402  0.000000     96.000000
 -0.056227  0.071417  0.000000     96.000000
 -0.033736  0.058432  0.000000     48.000000
  0.056227  0.032462  0.000000     48.000000
  0.078717  0.019477  0.000000     96.000000
 -0.078717  0.110372  0.000000     96.000000
 -0.056227  0.097387  0.000000     48.000000
  0.078717  0.045447  0.000000     48.000000
 -0.078717  0.136342  0.000000     48.000000
 


--------------------------------------------------------------------------------------------------------




 Dimension of arrays:
   k-points           NKPTS =     20   k-points in BZ     NKDIM =     20   number of bands    NBANDS=     96
   number of dos      NEDOS =    301   number of ions     NIONS =     16
   non local maximal  LDIM  =      6   non local SUM 2l+1 LMDIM =     18
   total plane-waves  NPLWV = 112896
   max r-space proj   IRMAX =      1   max aug-charges    IRDMAX=  10104
   dimension x,y,z NGX =    28 NGY =   28 NGZ =  144
   dimension x,y,z NGXF=    56 NGYF=   56 NGZF=  288
   support grid    NGXF=    56 NGYF=   56 NGZF=  288
   ions per type =               1  14   1
   NGX,Y,Z   is equivalent  to a cutoff of   8.38,  8.38,  7.77 a.u.
   NGXF,Y,Z  is equivalent  to a cutoff of  16.75, 16.75, 15.54 a.u.

 SYSTEM =  unknown system                          
 POSCAR =  Au Pt Ir                                

 Startparameter for this run:
   NWRITE =      2    write-flag & timer
   PREC   = normal    normal or accurate (medium, high low for compatibility)
   ISTART =      0    job   : 0-new  1-cont  2-samecut
   ICHARG =      2    charge: 1-file 2-atom 10-const
   ISPIN  =      1    spin polarized calculation?
   LNONCOLLINEAR =      F non collinear calculations
   LSORBIT =      F    spin-orbit coupling
   INIWAV =      1    electr: 0-lowe 1-rand  2-diag
   LASPH  =      F    aspherical Exc in radial PAW
   METAGGA=      F    non-selfconsistent MetaGGA calc.

 Electronic Relaxation 1
   ENCUT  =  350.0 eV  25.72 Ry    5.07 a.u.   8.48  8.48 46.99*2*pi/ulx,y,z
   ENINI  =  350.0     initial cutoff
   ENAUG  =  359.0 eV  augmentation charge cutoff
   NELM   =     60;   NELMIN=  2; NELMDL= -5     # of ELM steps 
   EDIFF  = 0.1E-04   stopping-criterion for ELM
   LREAL  =      F    real-space projection
   NLSPLINE    = F    spline interpolate recip. space projectors
   LCOMPAT=      F    compatible to vasp.4.4
   GGA_COMPAT  = T    GGA compatible to vasp.4.4-vasp.4.6
   LMAXPAW     = -100 max onsite density
   LMAXMIX     =    2 max onsite mixed and CHGCAR
   VOSKOWN=      0    Vosko Wilk Nusair interpolation
   ROPT   =    0.00000   0.00000   0.00000
 Ionic relaxation
   EDIFFG = -.5E-01   stopping-criterion for IOM
   NSW    =      0    number of steps for IOM
   NBLOCK =      1;   KBLOCK =      1    inner block; outer block 
   IBRION =     -1    ionic relax: 0-MD 1-quasi-New 2-CG
   NFREE  =      1    steps in history (QN), initial steepest desc. (CG)
   ISIF   =      2    stress and relaxation
   IWAVPR =     10    prediction:  0-non 1-charg 2-wave 3-comb
   ISYM   =      2    0-nonsym 1-usesym 2-fastsym
   LCORR  =      T    Harris-Foulkes like correction to forces

   POTIM  = 0.5000    time-step for ionic-motion
   TEIN   =    0.0    initial temperature
   TEBEG  =    0.0;   TEEND  =   0.0 temperature during run
   SMASS  =  -3.00    Nose mass-parameter (am)
   estimated Nose-frequenzy (Omega)   =  0.10E-29 period in steps =****** mass=  -0.706E-27a.u.
   SCALEE = 1.0000    scale energy and forces
   NPACO  =    256;   APACO  = 16.0  distance and # of slots for P.C.
   PSTRESS=    0.0 pullay stress

  Mass of Ions in am
   POMASS = 196.97195.08192.22
  Ionic Valenz
   ZVAL   =  11.00 10.00  9.00
  Atomic Wigner-Seitz radii
   RWIGS  =  -1.00 -1.00 -1.00
  virtual crystal weights 
   VCA    =   1.00  1.00  1.00
   NELECT =     160.0000    total number of electrons
   NUPDOWN=      -1.0000    fix difference up-down

 DOS related values:
   EMIN   =  10.00;   EMAX   =-10.00  energy-range for DOS
   EFERMI =   0.00
   ISMEAR =     1;   SIGMA  =   0.20  broadening in eV -4-tet -1-fermi 0-gaus

 Electronic relaxation 2 (details)
   IALGO  =     38    algorithm
   LDIAG  =      T    sub-space diagonalisation (order eigenvalues)
   LSUBROT=      F    optimize rotation matrix (better conditioning)
   TURBO    =      0    0=normal 1=particle mesh
   IRESTART =      0    0=no restart 2=restart with 2 vectors
   NREBOOT  =      0    no. of reboots
   NMIN     =      0    reboot dimension
   EREF     =   0.00    reference energy to select bands
   IMIX   =      4    mixing-type and parameters
     AMIX     =   0.40;   BMIX     =  1.00
     AMIX_MAG =   1.60;   BMIX_MAG =  1.00
     AMIN     =   0.10
     WC   =   100.;   INIMIX=   1;  MIXPRE=   1;  MAXMIX= -45

 Intra band minimization:
   WEIMIN = 0.0000     energy-eigenvalue tresh-hold
   EBREAK =  0.26E-07  absolut break condition
   DEPER  =   0.30     relativ break condition  

   TIME   =   0.40     timestep for ELM

  volume/ion in A,a.u.               =      51.51       347.59
  Fermi-wavevector in a.u.,A,eV,Ry     =   0.947945  1.791357 12.226201  0.898600
  Thomas-Fermi vector in A             =   2.076087
 
 Write flags
   LWAVE        =      F    write WAVECAR
   LDOWNSAMPLE  =      F    k-point downsampling of WAVECAR
   LCHARG       =      F    write CHGCAR
   LVTOT        =      F    write LOCPOT, total local potential
   LVHAR        =      F    write LOCPOT, Hartree potential only
   LELF         =      F    write electronic localiz. function (ELF)
   LORBIT       =      0    0 simple, 1 ext, 2 COOP (PROOUT), +10 PAW based schemes


 Dipole corrections
   LMONO  =      F    monopole corrections only (constant potential shift)
   LDIPOL =      F    correct potential (dipole corrections)
   IDIPOL =      3    1-x, 2-y, 3-z, 4-all directions 
   EPSILON=  1.0000000 bulk dielectric constant

 Exchange correlation treatment:
   GGA     =    PE    GGA type
   LEXCH   =     8    internal setting for exchange type
   VOSKOWN=      0    Vosko Wilk Nusair interpolation
   LHFCALC =     F    Hartree Fock is set to
   LHFONE  =     F    Hartree Fock one center treatment
   AEXX    =    0.0000 exact exchange contribution

 Linear response parameters
   LEPSILON=     F    determine dielectric tensor
   LRPA    =     F    only Hartree local field effects (RPA)
   LNABLA  =     F    use nabla operator in PAW spheres
   LVEL    =     F    velocity operator in full k-point grid
   LINTERFAST=   F  fast interpolation
   KINTER  =     0    interpolate to denser k-point grid
   CSHIFT  =0.1000    complex shift for real part using Kramers Kronig
   OMEGAMAX=  -1.0    maximum frequency
   DEG_THRESHOLD= 0.2000000E-02 threshold for treating states as degnerate
   RTIME   =   -0.100 relaxation time in fs
  (WPLASMAI=    0.000 imaginary part of plasma frequency in eV, 0.658/RTIME)
   DFIELD  = 0.0000000 0.0000000 0.0000000 field for delta impulse in time
 
 Orbital magnetization related:
   ORBITALMAG=     F  switch on orbital magnetization
   LCHIMAG   =     F  perturbation theory with respect to B field
   DQ        =  0.001000  dq finite difference perturbation B field
   LLRAUG    =     F  two centre corrections for induced B field



--------------------------------------------------------------------------------------------------------


 Static calculation
 charge density and potential will be updated during run
 non-spin polarized calculation
 Variant of blocked Davidson
 Davidson routine will perform the subspace rotation
 perform sub-space diagonalisation
    after iterative eigenvector-optimisation
 modified Broyden-mixing scheme, WC =      100.0
 initial mixing is a Kerker type mixing with AMIX =  0.4000 and BMIX =      1.0000
 Hartree-type preconditioning will be used
 using additional bands           16
 reciprocal scheme for non local part
 use partial core corrections
 calculate Harris-corrections to forces 
   (improved forces if not selfconsistent)
 use gradient corrections 
 use of overlap-Matrix (Vanderbilt PP)
 Methfessel and Paxton  Order N= 1 SIGMA  =   0.20


--------------------------------------------------------------------------------------------------------


  energy-cutoff  :      350.00
  volume of cell :      824.13
      direct lattice vectors                 reciprocal lattice vectors
     5.557859300  0.000000000  0.000000000     0.179925390 -0.103879972  0.000000000
     2.778929650  4.813247345  0.000000000     0.000000000  0.207759944  0.000000000
     0.000000000  0.000000000 30.806959674     0.000000000  0.000000000  0.032460198

  length of vectors
     5.557859300  5.557859300 30.806959674     0.207759944  0.207759944  0.032460198


 
 k-points in units of 2pi/SCALE and weight: KPOINTS created by Atomic Simulation Env
   0.01124534  0.00649250  0.00000000       0.031
   0.03373601 -0.00649250  0.00000000       0.062
   0.05622668 -0.01947749  0.00000000       0.062
   0.07871736 -0.03246249  0.00000000       0.062
  -0.07871736  0.05843248  0.00000000       0.062
  -0.05622668  0.04544749  0.00000000       0.062
  -0.03373601  0.03246249  0.00000000       0.062
  -0.01124534  0.01947749  0.00000000       0.031
   0.03373601  0.01947749  0.00000000       0.031
   0.05622668  0.00649250  0.00000000       0.062
   0.07871736 -0.00649250  0.00000000       0.062
  -0.07871736  0.08440248  0.00000000       0.062
  -0.05622668  0.07141748  0.00000000       0.062
  -0.03373601  0.05843248  0.00000000       0.031
   0.05622668  0.03246249  0.00000000       0.031
   0.07871736  0.01947749  0.00000000       0.062
  -0.07871736  0.11037247  0.00000000       0.062
  -0.05622668  0.09738747  0.00000000       0.031
   0.07871736  0.04544749  0.00000000       0.031
  -0.07871736  0.13634246  0.00000000       0.031
 
 k-points in reciprocal lattice and weights: KPOINTS created by Atomic Simulation Env
   0.06250000  0.06250000  0.00000000       0.031
   0.18750000  0.06250000  0.00000000       0.062
   0.31250000  0.06250000  0.00000000       0.062
   0.43750000  0.06250000  0.00000000       0.062
  -0.43750000  0.06250000  0.00000000       0.062
  -0.31250000  0.06250000  0.00000000       0.062
  -0.18750000  0.06250000  0.00000000       0.062
  -0.06250000  0.06250000  0.00000000       0.031
   0.18750000  0.18750000  0.00000000       0.031
   0.31250000  0.18750000  0.00000000       0.062
   0.43750000  0.18750000  0.00000000       0.062
  -0.43750000  0.18750000  0.00000000       0.062
  -0.31250000  0.18750000  0.00000000       0.062
  -0.18750000  0.18750000  0.00000000       0.031
   0.31250000  0.31250000  0.00000000       0.031
   0.43750000  0.31250000  0.00000000       0.062
  -0.43750000  0.31250000  0.00000000       0.062
  -0.31250000  0.31250000  0.00000000       0.031
   0.43750000  0.43750000  0.00000000       0.031
  -0.43750000  0.43750000  0.00000000       0.031
 
 position of ions in fractional coordinates (direct lattice) 
   0.00000000  0.00000000  0.38952237
   0.50000000  0.00000000  0.38952237
   0.00000000  0.50000000  0.38952237
   0.50000000  0.50000000  0.38952237
   0.16666667  0.16666667  0.46468540
   0.66666667  0.16666667  0.46468540
   0.16666667  0.66666667  0.46468540
   0.66666667  0.66666667  0.46468540
   0.83333333  0.33333333  0.53920296
   0.83333333  0.83333333  0.53920296
   0.33333333  0.83333333  0.53920296
   0.00000000  0.00000000  0.61486043
   0.50000000  0.00000000  0.61486043
   0.00000000  0.50000000  0.61486043
   0.50000000  0.50000000  0.61486043
   0.33333333  0.33333333  0.53920296
 
 position of ions in cartesian coordinates  (Angst):
   0.00000000  0.00000000 12.00000000
   2.77892965  0.00000000 12.00000000
   1.38946483  2.40662367 12.00000000
   4.16839448  2.40662367 12.00000000
   1.38946483  0.80220789 14.31554441
   4.16839448  0.80220789 14.31554441
   2.77892965  3.20883156 14.31554441
   5.55785930  3.20883156 14.31554441
   5.55785930  1.60441578 16.61120399
   6.94732413  4.01103945 16.61120399
   4.16839448  4.01103945 16.61120399
   0.00000000  0.00000000 18.94198048
   2.77892965  0.00000000 18.94198048
   1.38946483  2.40662367 18.94198048
   4.16839448  2.40662367 18.94198048
   2.77892965  1.60441578 16.61120399
 


--------------------------------------------------------------------------------------------------------


 k-point  1 :   0.0625 0.0625 0.0000  plane waves:   12325
 k-point  2 :   0.1875 0.0625 0.0000  plane waves:   12294
 k-point  3 :   0.3125 0.0625 0.0000  plane waves:   12263
 k-point  4 :   0.4375 0.0625 0.0000  plane waves:   12221
 k-point  5 :  -0.4375 0.0625 0.0000  plane waves:   12211
 k-point  6 :  -0.3125 0.0625 0.0000  plane waves:   12242
 k-point  7 :  -0.1875 0.0625 0.0000  plane waves:   12280
 k-point  8 :  -0.0625 0.0625 0.0000  plane waves:   12329
 k-point  9 :   0.1875 0.1875 0.0000  plane waves:   12277
 k-point 10 :   0.3125 0.1875 0.0000  plane waves:   12288
 k-point 11 :   0.4375 0.1875 0.0000  plane waves:   12234
 k-point 12 :  -0.4375 0.1875 0.0000  plane waves:   12216
 k-point 13 :  -0.3125 0.1875 0.0000  plane waves:   12215
 k-point 14 :  -0.1875 0.1875 0.0000  plane waves:   12289
 k-point 15 :   0.3125 0.3125 0.0000  plane waves:   12275
 k-point 16 :   0.4375 0.3125 0.0000  plane waves:   12239
 k-point 17 :  -0.4375 0.3125 0.0000  plane waves:   12235
 k-point 18 :  -0.3125 0.3125 0.0000  plane waves:   12232
 k-point 19 :   0.4375 0.4375 0.0000  plane waves:   12200
 k-point 20 :  -0.4375 0.4375 0.0000  plane waves:   12214

 maximum and minimum number of plane-waves per node :     12329    12200

 maximum number of plane-waves:     12329
 maximum index in each direction: 
   IXMAX=    8   IYMAX=    8   IZMAX=   46
   IXMIN=   -8   IYMIN=   -8   IZMIN=  -46


 serial   3D FFT for wavefunctions
 parallel 3D FFT for charge:
    minimum data exchange during FFTs selected (reduces bandwidth)


 total amount of memory used by VASP MPI-rank0   165803. kBytes
=======================================================================

   base      :      30000. kBytes
   nonl-proj :     109741. kBytes
   fftplans  :       2015. kBytes
   grid      :       7641. kBytes
   one-center:        248. kBytes
   wavefun   :      16158. kBytes
 
     INWAV:  cpu time    0.0000: real time    0.0000
 Broyden mixing: mesh for mixing (old mesh)
   NGX = 17   NGY = 17   NGZ = 93
  (NGX  = 56   NGY  = 56   NGZ  =288)
  gives a total of  26877 points

 initial charge density was supplied:
 charge density of overlapping atoms calculated
 number of electron     160.0000000 magnetization 
 keeping initial charge density in first step


--------------------------------------------------------------------------------------------------------


 Maximum index for augmentation-charges          728 (set IRDMAX)


--------------------------------------------------------------------------------------------------------


 First call to EWALD:  gamma=   0.189
 Maximum number of real-space cells 5x 5x 1
 Maximum number of reciprocal cells 2x 2x 8

    FEWALD:  cpu time    0.0015: real time    0.0015


--------------------------------------- Iteration      1(   1)  ---------------------------------------


    POTLOK:  cpu time    0.0195: real time    0.0252
    SETDIJ:  cpu time    0.0023: real time    0.0023
     EDDAV:  cpu time    3.4556: real time    3.4577
       DOS:  cpu time    0.0013: real time    0.0013
    --------------------------------------------
      LOOP:  cpu time    3.4787: real time    3.4865

 eigenvalue-minimisations  :  3840
 total energy-change (2. order) : 0.9759790E+03  (-0.5550958E+04)
 number of electron     160.0000000 magnetization 
 augmentation part      160.0000000 magnetization 

 Free energy of the ion-electron system (eV)
  ---------------------------------------------------
  alpha Z        PSCENC =       303.52543553
  Ewald energy   TEWEN  =     97993.85346281
  -Hartree energ DENC   =   -110064.81382047
  -exchange      EXHF   =         0.00000000
  -V(xc)+E(xc)   XCENC  =        46.30325017
  PAW double counting   =     11171.21661038   -10711.84633960
  entropy T*S    EENTRO =        -0.01921126
  eigenvalues    EBANDS =       544.06539749
  atomic energy  EATOM  =     11693.69420960
  Solvation  Ediel_sol  =         0.00000000
  ---------------------------------------------------
  free energy    TOTEN  =       975.97899465 eV

  energy without entropy =      975.99820591  energy(sigma->0) =      975.98539840


--------------------------------------------------------------------------------------------------------




--------------------------------------- Iteration      1(   2)  ---------------------------------------


     EDDAV:  cpu time    4.9496: real time    4.9499
       DOS:  cpu time    0.0011: real time    0.0011
    --------------------------------------------
      LOOP:  cpu time    4.9507: real time    4.9510

 eigenvalue-minimisations  :  5616
 total energy-change (2. order) :-0.1015814E+04  (-0.9874166E+03)
 number of electron     160.0000000 magnetization 
 augmentation part      160.0000000 magnetization 

 Free energy of the ion-electron system (eV)
  ---------------------------------------------------
  alpha Z        PSCENC =       303.52543553
  Ewald energy   TEWEN  =     97993.85346281
  -Hartree energ DENC   =   -110064.81382047
  -exchange      EXHF   =         0.00000000
  -V(xc)+E(xc)   XCENC  =        46.30325017
  PAW double counting   =     11171.21661038   -10711.84633960
  entropy T*S    EENTRO =        -0.00976231
  eigenvalues    EBANDS =      -471.75787358
  atomic energy  EATOM  =     11693.69420960
  Solvation  Ediel_sol  =         0.00000000
  ---------------------------------------------------
  free energy    TOTEN  =       -39.83482746 eV

  energy without entropy =      -39.82506516  energy(sigma->0) =      -39.83157336


--------------------------------------------------------------------------------------------------------




--------------------------------------- Iteration      1(   3)  ---------------------------------------


     EDDAV:  cpu time    4.3056: real time    4.3066
       DOS:  cpu time    0.0016: real time    0.0016
    --------------------------------------------
      LOOP:  cpu time    4.3072: real time    4.3082

 eigenvalue-minimisations  :  4752
 total energy-change (2. order) :-0.5763420E+02  (-0.5595504E+02)
 number of electron     160.0000000 magnetization 
 augmentation part      160.0000000 magnetization 

 Free energy of the ion-electron system (eV)
  ---------------------------------------------------
  alpha Z        PSCENC =       303.52543553
  Ewald energy   TEWEN  =     97993.85346281
  -Hartree energ DENC   =   -110064.81382047
  -exchange      EXHF   =         0.00000000
  -V(xc)+E(xc)   XCENC  =        46.30325017
  PAW double counting   =     11171.21661038   -10711.84633960
  entropy T*S    EENTRO =        -0.03024212
  eigenvalues    EBANDS =      -529.37159442
  atomic energy  EATOM  =     11693.69420960
  Solvation  Ediel_sol  =         0.00000000
  ---------------------------------------------------
  free energy    TOTEN  =       -97.46902813 eV

  energy without entropy =      -97.43878600  energy(sigma->0) =      -97.45894742


--------------------------------------------------------------------------------------------------------




--------------------------------------- Iteration      1(   4)  ---------------------------------------


     EDDAV:  cpu time    4.7606: real time    4.7605
       DOS:  cpu time    0.0008: real time    0.0008
    --------------------------------------------
      LOOP:  cpu time    4.7615: real time    4.7613

 eigenvalue-minimisations  :  5448
 total energy-change (2. order) :-0.1213253E+01  (-0.1207227E+01)
 number of electron     160.0000000 magnetization 
 augmentation part      160.0000000 magnetization 

 Free energy of the ion-electron system (eV)
  ---------------------------------------------------
  alpha Z        PSCENC =       303.52543553
  Ewald energy   TEWEN  =     97993.85346281
  -Hartree energ DENC   =   -110064.81382047
  -exchange      EXHF   =         0.00000000
  -V(xc)+E(xc)   XCENC  =        46.30325017
  PAW double counting   =     11171.21661038   -10711.84633960
  entropy T*S    EENTRO =        -0.03062701
  eigenvalues    EBANDS =      -530.58446208
  atomic energy  EATOM  =     11693.69420960
  Solvation  Ediel_sol  =         0.00000000
  ---------------------------------------------------
  free energy    TOTEN  =       -98.68228067 eV

  energy without entropy =      -98.65165366  energy(sigma->0) =      -98.67207166


--------------------------------------------------------------------------------------------------------




--------------------------------------- Iteration      1(   5)  ---------------------------------------


     EDDAV:  cpu time    5.0110: real time    5.0108
       DOS:  cpu time    0.0008: real time    0.0008
    CHARGE:  cpu time    0.1314: real time    0.1313
    MIXING:  cpu time    0.0010: real time    0.0012
    --------------------------------------------
      LOOP:  cpu time    5.1442: real time    5.1442

 eigenvalue-minimisations  :  5736
 total energy-change (2. order) :-0.3142359E-01  (-0.3139553E-01)
 number of electron     160.0000114 magnetization 
 augmentation part       46.9757487 magnetization 

 Broyden mixing:
  rms(total) = 0.41758E+01    rms(broyden)= 0.41757E+01
  rms(prec ) = 0.42054E+01
  weight for this iteration     100.00

 Free energy of the ion-electron system (eV)
  ---------------------------------------------------
  alpha Z        PSCENC =       303.52543553
  Ewald energy   TEWEN  =     97993.85346281
  -Hartree energ DENC   =   -110064.81382047
  -exchange      EXHF   =         0.00000000
  -V(xc)+E(xc)   XCENC  =        46.30325017
  PAW double counting   =     11171.21661038   -10711.84633960
  entropy T*S    EENTRO =        -0.03065167
  eigenvalues    EBANDS =      -530.61586101
  atomic energy  EATOM  =     11693.69420960
  Solvation  Ediel_sol  =         0.00000000
  ---------------------------------------------------
  free energy    TOTEN  =       -98.71370425 eV

  energy without entropy =      -98.68305259  energy(sigma->0) =      -98.70348703


--------------------------------------------------------------------------------------------------------




--------------------------------------- Iteration      1(   6)  ---------------------------------------


    POTLOK:  cpu time    0.0168: real time    0.0168
    SETDIJ:  cpu time    0.0023: real time    0.0023
     EDDAV:  cpu time    4.1422: real time    4.1423
       DOS:  cpu time    0.0010: real time    0.0010
    CHARGE:  cpu time    0.1310: real time    0.1310
    MIXING:  cpu time    0.0008: real time    0.0008
    --------------------------------------------
      LOOP:  cpu time    4.2939: real time    4.2941

 eigenvalue-minimisations  :  4704
 total energy-change (2. order) : 0.3869445E+01  (-0.3177919E+01)
 number of electron     160.0000109 magnetization 
 augmentation part       49.5801374 magnetization 

 Broyden mixing:
  rms(total) = 0.30060E+01    rms(broyden)= 0.30060E+01
  rms(prec ) = 0.30986E+01
  weight for this iteration     100.00

 eigenvalues of (default mixing * dielectric matrix)
  average eigenvalue GAMMA=   1.2930
  1.2930

 Free energy of the ion-electron system (eV)
  ---------------------------------------------------
  alpha Z        PSCENC =       303.52543553
  Ewald energy   TEWEN  =     97993.85346281
  -Hartree energ DENC   =   -109876.28504254
  -exchange      EXHF   =         0.00000000
  -V(xc)+E(xc)   XCENC  =        42.20744597
  PAW double counting   =     12328.22578518   -11892.01771604
  entropy T*S    EENTRO =        -0.04392943
  eigenvalues    EBANDS =      -688.00391027
  atomic energy  EATOM  =     11693.69420960
  Solvation  Ediel_sol  =         0.00000000
  ---------------------------------------------------
  free energy    TOTEN  =       -94.84425919 eV

  energy without entropy =      -94.80032976  energy(sigma->0) =      -94.82961605


--------------------------------------------------------------------------------------------------------




--------------------------------------- Iteration      1(   7)  ---------------------------------------


    POTLOK:  cpu time    0.0174: real time    0.0229
    SETDIJ:  cpu time    0.0023: real time    0.0023
     EDDAV:  cpu time    4.3535: real time    4.3535
       DOS:  cpu time    0.0010: real time    0.0010
    CHARGE:  cpu time    0.1302: real time    0.1302
    MIXING:  cpu time    0.0006: real time    0.0006
    --------------------------------------------
      LOOP:  cpu time    4.5050: real time    4.5105

 eigenvalue-minimisations  :  4992
 total energy-change (2. order) :-0.2405480E+02  (-0.1687572E+02)
 number of electron     160.0000131 magnetization 
 augmentation part       48.8623246 magnetization 

 Broyden mixing:
  rms(total) = 0.42963E+01    rms(broyden)= 0.42961E+01
  rms(prec ) = 0.47462E+01
  weight for this iteration     100.00

 eigenvalues of (default mixing * dielectric matrix)
  average eigenvalue GAMMA=   1.1812
  2.0961  0.2664

 Free energy of the ion-electron system (eV)
  ---------------------------------------------------
  alpha Z        PSCENC =       303.52543553
  Ewald energy   TEWEN  =     97993.85346281
  -Hartree energ DENC   =   -110043.77280218
  -exchange      EXHF   =         0.00000000
  -V(xc)+E(xc)   XCENC  =        40.68759286
  PAW double counting   =     13191.69141962   -12766.18151719
  entropy T*S    EENTRO =        -0.02930135
  eigenvalues    EBANDS =      -532.36755862
  atomic energy  EATOM  =     11693.69420960
  Solvation  Ediel_sol  =         0.00000000
  ---------------------------------------------------
  free energy    TOTEN  =      -118.89905893 eV

  energy without entropy =     -118.86975758  energy(sigma->0) =     -118.88929182


--------------------------------------------------------------------------------------------------------




--------------------------------------- Iteration      1(   8)  ---------------------------------------


    POTLOK:  cpu time    0.0159: real time    0.0160
    SETDIJ:  cpu time    0.0021: real time    0.0021
     EDDAV:  cpu time    4.6894: real time    4.6893
       DOS:  cpu time    0.0009: real time    0.0009
    CHARGE:  cpu time    0.1301: real time    0.1301
    MIXING:  cpu time    0.0006: real time    0.0006
    --------------------------------------------
      LOOP:  cpu time    4.8390: real time    4.8390

 eigenvalue-minimisations  :  5424
 total energy-change (2. order) : 0.2240439E+02  (-0.8363915E+01)
 number of electron     160.0000127 magnetization 
 augmentation part       50.4292220 magnetization 

 Broyden mixing:
  rms(total) = 0.18840E+01    rms(broyden)= 0.18840E+01
  rms(prec ) = 0.21121E+01
  weight for this iteration     100.00

 eigenvalues of (default mixing * dielectric matrix)
  average eigenvalue GAMMA=   0.9808
  2.0471  0.5302  0.3653

 Free energy of the ion-electron system (eV)
  ---------------------------------------------------
  alpha Z        PSCENC =       303.52543553
  Ewald energy   TEWEN  =     97993.85346281
  -Hartree energ DENC   =   -109894.48573426
  -exchange      EXHF   =         0.00000000
  -V(xc)+E(xc)   XCENC  =        40.08882824
  PAW double counting   =     14069.87675673   -13655.17620419
  entropy T*S    EENTRO =        -0.03995045
  eigenvalues    EBANDS =      -647.83147597
  atomic energy  EATOM  =     11693.69420960
  Solvation  Ediel_sol  =         0.00000000
  ---------------------------------------------------
  free energy    TOTEN  =       -96.49467197 eV

  energy without entropy =      -96.45472151  energy(sigma->0) =      -96.48135515


--------------------------------------------------------------------------------------------------------




--------------------------------------- Iteration      1(   9)  ---------------------------------------


    POTLOK:  cpu time    0.0163: real time    0.0163
    SETDIJ:  cpu time    0.0021: real time    0.0021
     EDDAV:  cpu time    4.9481: real time    4.9479
       DOS:  cpu time    0.0010: real time    0.0010
    CHARGE:  cpu time    0.1307: real time    0.1307
    MIXING:  cpu time    0.0007: real time    0.0007
    --------------------------------------------
      LOOP:  cpu time    5.0988: real time    5.0986

 eigenvalue-minimisations  :  5760
 total energy-change (2. order) :-0.6507927E+01  (-0.9117816E+01)
 number of electron     160.0000112 magnetization 
 augmentation part       50.1810419 magnetization 

 Broyden mixing:
  rms(total) = 0.26777E+01    rms(broyden)= 0.26775E+01
  rms(prec ) = 0.33088E+01
  weight for this iteration     100.00

 eigenvalues of (default mixing * dielectric matrix)
  average eigenvalue GAMMA=   0.8694
  2.1679  0.8141  0.3210  0.1748

 Free energy of the ion-electron system (eV)
  ---------------------------------------------------
  alpha Z        PSCENC =       303.52543553
  Ewald energy   TEWEN  =     97993.85346281
  -Hartree energ DENC   =   -109871.95730649
  -exchange      EXHF   =         0.00000000
  -V(xc)+E(xc)   XCENC  =        40.20724453
  PAW double counting   =     14164.14436242   -13748.91459116
  entropy T*S    EENTRO =        -0.00424175
  eigenvalues    EBANDS =      -677.55117465
  atomic energy  EATOM  =     11693.69420960
  Solvation  Ediel_sol  =         0.00000000
  ---------------------------------------------------
  free energy    TOTEN  =      -103.00259915 eV

  energy without entropy =     -102.99835740  energy(sigma->0) =     -103.00118523


--------------------------------------------------------------------------------------------------------




--------------------------------------- Iteration      1(  10)  ---------------------------------------


    POTLOK:  cpu time    0.0171: real time    0.0173
    SETDIJ:  cpu time    0.0021: real time    0.0021
     EDDAV:  cpu time    4.9854: real time    4.9852
       DOS:  cpu time    0.0008: real time    0.0008
    CHARGE:  cpu time    0.1304: real time    0.1304
    MIXING:  cpu time    0.0008: real time    0.0008
    --------------------------------------------
      LOOP:  cpu time    5.1365: real time    5.1365

 eigenvalue-minimisations  :  5760
 total energy-change (2. order) : 0.6831574E+01  (-0.4708150E+01)
 number of electron     160.0000116 magnetization 
 augmentation part       50.2780632 magnetization 

 Broyden mixing:
  rms(total) = 0.19193E+01    rms(broyden)= 0.19191E+01
  rms(prec ) = 0.24613E+01
  weight for this iteration     100.00

 eigenvalues of (default mixing * dielectric matrix)
  average eigenvalue GAMMA=   0.7712
  2.2287  0.9442  0.2671  0.2671  0.1489

 Free energy of the ion-electron system (eV)
  ---------------------------------------------------
  alpha Z        PSCENC =       303.52543553
  Ewald energy   TEWEN  =     97993.85346281
  -Hartree energ DENC   =   -109874.13516796
  -exchange      EXHF   =         0.00000000
  -V(xc)+E(xc)   XCENC  =        40.45257945
  PAW double counting   =     14315.47354180   -13900.47409764
  entropy T*S    EENTRO =        -0.02670105
  eigenvalues    EBANDS =      -668.53428761
  atomic energy  EATOM  =     11693.69420960
  Solvation  Ediel_sol  =         0.00000000
  ---------------------------------------------------
  free energy    TOTEN  =       -96.17102506 eV

  energy without entropy =      -96.14432401  energy(sigma->0) =      -96.16212471


--------------------------------------------------------------------------------------------------------




--------------------------------------- Iteration      1(  11)  ---------------------------------------


    POTLOK:  cpu time    0.0168: real time    0.0168
    SETDIJ:  cpu time    0.0021: real time    0.0021
     EDDAV:  cpu time    4.9136: real time    4.9135
       DOS:  cpu time    0.0008: real time    0.0008
    CHARGE:  cpu time    0.1304: real time    0.1304
    MIXING:  cpu time    0.0007: real time    0.0007
    --------------------------------------------
      LOOP:  cpu time    5.0644: real time    5.0643

 eigenvalue-minimisations  :  5688
 total energy-change (2. order) : 0.1691542E+01  (-0.4867644E+01)
 number of electron     160.0000115 magnetization 
 augmentation part       50.1855379 magnetization 

 Broyden mixing:
  rms(total) = 0.14928E+01    rms(broyden)= 0.14927E+01
  rms(prec ) = 0.19528E+01
  weight for this iteration     100.00

 eigenvalues of (default mixing * dielectric matrix)
  average eigenvalue GAMMA=   0.7167
  2.1982  1.0240  0.3558  0.3558  0.2682  0.0981

 Free energy of the ion-electron system (eV)
  ---------------------------------------------------
  alpha Z        PSCENC =       303.52543553
  Ewald energy   TEWEN  =     97993.85346281
  -Hartree energ DENC   =   -109877.93427232
  -exchange      EXHF   =         0.00000000
  -V(xc)+E(xc)   XCENC  =        40.54893872
  PAW double counting   =     14401.63551744   -13986.95497920
  entropy T*S    EENTRO =         0.00559069
  eigenvalues    EBANDS =      -662.85338656
  atomic energy  EATOM  =     11693.69420960
  Solvation  Ediel_sol  =         0.00000000
  ---------------------------------------------------
  free energy    TOTEN  =       -94.47948328 eV

  energy without entropy =      -94.48507397  energy(sigma->0) =      -94.48134685


--------------------------------------------------------------------------------------------------------




--------------------------------------- Iteration      1(  12)  ---------------------------------------


    POTLOK:  cpu time    0.0168: real time    0.0168
    SETDIJ:  cpu time    0.0021: real time    0.0021
     EDDAV:  cpu time    4.3192: real time    4.3191
       DOS:  cpu time    0.0010: real time    0.0010
    CHARGE:  cpu time    0.1300: real time    0.1300
    MIXING:  cpu time    0.0008: real time    0.0008
    --------------------------------------------
      LOOP:  cpu time    4.4698: real time    4.4698

 eigenvalue-minimisations  :  4944
 total energy-change (2. order) : 0.1621139E+01  (-0.1553967E+01)
 number of electron     160.0000117 magnetization 
 augmentation part       50.1231341 magnetization 

 Broyden mixing:
  rms(total) = 0.73177E+00    rms(broyden)= 0.73169E+00
  rms(prec ) = 0.82544E+00
  weight for this iteration     100.00

 eigenvalues of (default mixing * dielectric matrix)
  average eigenvalue GAMMA=   0.6480
  2.1186  0.9145  0.4628  0.3759  0.3759  0.1885  0.0998

 Free energy of the ion-electron system (eV)
  ---------------------------------------------------
  alpha Z        PSCENC =       303.52543553
  Ewald energy   TEWEN  =     97993.85346281
  -Hartree energ DENC   =   -109886.68035302
  -exchange      EXHF   =         0.00000000
  -V(xc)+E(xc)   XCENC  =        40.51649057
  PAW double counting   =     14402.38868058   -13987.73828971
  entropy T*S    EENTRO =        -0.01498642
  eigenvalues    EBANDS =      -652.40299456
  atomic energy  EATOM  =     11693.69420960
  Solvation  Ediel_sol  =         0.00000000
  ---------------------------------------------------
  free energy    TOTEN  =       -92.85834463 eV

  energy without entropy =      -92.84335821  energy(sigma->0) =      -92.85334915


--------------------------------------------------------------------------------------------------------




--------------------------------------- Iteration      1(  13)  ---------------------------------------


    POTLOK:  cpu time    0.0166: real time    0.0190
    SETDIJ:  cpu time    0.0021: real time    0.0021
     EDDAV:  cpu time    4.6668: real time    4.6666
       DOS:  cpu time    0.0008: real time    0.0008
    CHARGE:  cpu time    0.1306: real time    0.1306
    MIXING:  cpu time    0.0008: real time    0.0008
    --------------------------------------------
      LOOP:  cpu time    4.8177: real time    4.8199

 eigenvalue-minimisations  :  5376
 total energy-change (2. order) : 0.3362662E+00  (-0.1650811E+00)
 number of electron     160.0000119 magnetization 
 augmentation part       50.0689832 magnetization 

 Broyden mixing:
  rms(total) = 0.39152E+00    rms(broyden)= 0.39148E+00
  rms(prec ) = 0.41429E+00
  weight for this iteration     100.00

 eigenvalues of (default mixing * dielectric matrix)
  average eigenvalue GAMMA=   0.6838
  2.0015  0.9232  0.9232  0.6125  0.3427  0.3427  0.2244  0.1003

 Free energy of the ion-electron system (eV)
  ---------------------------------------------------
  alpha Z        PSCENC =       303.52543553
  Ewald energy   TEWEN  =     97993.85346281
  -Hartree energ DENC   =   -109890.78127301
  -exchange      EXHF   =         0.00000000
  -V(xc)+E(xc)   XCENC  =        40.54577044
  PAW double counting   =     14351.68337144   -13936.74140839
  entropy T*S    EENTRO =        -0.03425932
  eigenvalues    EBANDS =      -648.26738756
  atomic energy  EATOM  =     11693.69420960
  Solvation  Ediel_sol  =         0.00000000
  ---------------------------------------------------
  free energy    TOTEN  =       -92.52207845 eV

  energy without entropy =      -92.48781913  energy(sigma->0) =      -92.51065867


--------------------------------------------------------------------------------------------------------




--------------------------------------- Iteration      1(  14)  ---------------------------------------


    POTLOK:  cpu time    0.0168: real time    0.0179
    SETDIJ:  cpu time    0.0023: real time    0.0023
     EDDAV:  cpu time    4.4443: real time    4.4443
       DOS:  cpu time    0.0008: real time    0.0008
    CHARGE:  cpu time    0.1304: real time    0.1304
    MIXING:  cpu time    0.0009: real time    0.0009
    --------------------------------------------
      LOOP:  cpu time    4.5955: real time    4.5966

 eigenvalue-minimisations  :  5160
 total energy-change (2. order) : 0.5710661E-01  (-0.5354646E-01)
 number of electron     160.0000117 magnetization 
 augmentation part       50.1195675 magnetization 

 Broyden mixing:
  rms(total) = 0.31674E+00    rms(broyden)= 0.31673E+00
  rms(prec ) = 0.33271E+00
  weight for this iteration     100.00

 eigenvalues of (default mixing * dielectric matrix)
  average eigenvalue GAMMA=   0.7297
  2.0725  1.1381  1.1381  0.7209  0.4032  0.4032  0.3721  0.2188  0.1002

 Free energy of the ion-electron system (eV)
  ---------------------------------------------------
  alpha Z        PSCENC =       303.52543553
  Ewald energy   TEWEN  =     97993.85346281
  -Hartree energ DENC   =   -109883.82998048
  -exchange      EXHF   =         0.00000000
  -V(xc)+E(xc)   XCENC  =        40.58233746
  PAW double counting   =     14253.89980332   -13838.68112223
  entropy T*S    EENTRO =        -0.02944278
  eigenvalues    EBANDS =      -655.47967507
  atomic energy  EATOM  =     11693.69420960
  Solvation  Ediel_sol  =         0.00000000
  ---------------------------------------------------
  free energy    TOTEN  =       -92.46497184 eV

  energy without entropy =      -92.43552905  energy(sigma->0) =      -92.45515757


--------------------------------------------------------------------------------------------------------




--------------------------------------- Iteration      1(  15)  ---------------------------------------


    POTLOK:  cpu time    0.0167: real time    0.0168
    SETDIJ:  cpu time    0.0021: real time    0.0021
     EDDAV:  cpu time    3.9255: real time    3.9255
       DOS:  cpu time    0.0010: real time    0.0010
    CHARGE:  cpu time    0.1307: real time    0.1307
    MIXING:  cpu time    0.0010: real time    0.0010
    --------------------------------------------
      LOOP:  cpu time    4.0770: real time    4.0771

 eigenvalue-minimisations  :  4464
 total energy-change (2. order) : 0.2365597E-01  (-0.4630568E-01)
 number of electron     160.0000118 magnetization 
 augmentation part       50.1109064 magnetization 

 Broyden mixing:
  rms(total) = 0.21708E+00    rms(broyden)= 0.21706E+00
  rms(prec ) = 0.23344E+00
  weight for this iteration     100.00

 eigenvalues of (default mixing * dielectric matrix)
  average eigenvalue GAMMA=   0.7953
  2.3449  1.3152  1.3152  1.1868  0.3843  0.3843  0.3713  0.3310  0.2197  0.1003

 Free energy of the ion-electron system (eV)
  ---------------------------------------------------
  alpha Z        PSCENC =       303.52543553
  Ewald energy   TEWEN  =     97993.85346281
  -Hartree energ DENC   =   -109888.55190793
  -exchange      EXHF   =         0.00000000
  -V(xc)+E(xc)   XCENC  =        40.56939953
  PAW double counting   =     14226.43250856   -13811.42202762
  entropy T*S    EENTRO =        -0.04133150
  eigenvalues    EBANDS =      -650.50106485
  atomic energy  EATOM  =     11693.69420960
  Solvation  Ediel_sol  =         0.00000000
  ---------------------------------------------------
  free energy    TOTEN  =       -92.44131586 eV

  energy without entropy =      -92.39998437  energy(sigma->0) =      -92.42753870


--------------------------------------------------------------------------------------------------------




--------------------------------------- Iteration      1(  16)  ---------------------------------------


    POTLOK:  cpu time    0.0182: real time    0.0184
    SETDIJ:  cpu time    0.0021: real time    0.0021
     EDDAV:  cpu time    4.2251: real time    4.2253
       DOS:  cpu time    0.0008: real time    0.0008
    CHARGE:  cpu time    0.1302: real time    0.1302
    MIXING:  cpu time    0.0011: real time    0.0011
    --------------------------------------------
      LOOP:  cpu time    4.3775: real time    4.3778

 eigenvalue-minimisations  :  4824
 total energy-change (2. order) : 0.2370709E-01  (-0.2791074E-01)
 number of electron     160.0000119 magnetization 
 augmentation part       50.1005460 magnetization 

 Broyden mixing:
  rms(total) = 0.14726E+00    rms(broyden)= 0.14725E+00
  rms(prec ) = 0.18051E+00
  weight for this iteration     100.00

 eigenvalues of (default mixing * dielectric matrix)
  average eigenvalue GAMMA=   0.7863
  2.1075  1.5790  1.2507  1.2507  0.6719  0.3886  0.3886  0.3466  0.3466  0.2196
  0.1003

 Free energy of the ion-electron system (eV)
  ---------------------------------------------------
  alpha Z        PSCENC =       303.52543553
  Ewald energy   TEWEN  =     97993.85346281
  -Hartree energ DENC   =   -109891.28798404
  -exchange      EXHF   =         0.00000000
  -V(xc)+E(xc)   XCENC  =        40.60987836
  PAW double counting   =     14205.80961207   -13790.96691410
  entropy T*S    EENTRO =        -0.03406267
  eigenvalues    EBANDS =      -647.62124632
  atomic energy  EATOM  =     11693.69420960
  Solvation  Ediel_sol  =         0.00000000
  ---------------------------------------------------
  free energy    TOTEN  =       -92.41760877 eV

  energy without entropy =      -92.38354609  energy(sigma->0) =      -92.40625454


--------------------------------------------------------------------------------------------------------




--------------------------------------- Iteration      1(  17)  ---------------------------------------


    POTLOK:  cpu time    0.0164: real time    0.0165
    SETDIJ:  cpu time    0.0021: real time    0.0021
     EDDAV:  cpu time    3.8308: real time    3.8308
       DOS:  cpu time    0.0009: real time    0.0009
    CHARGE:  cpu time    0.1305: real time    0.1305
    MIXING:  cpu time    0.0011: real time    0.0011
    --------------------------------------------
      LOOP:  cpu time    3.9818: real time    3.9819

 eigenvalue-minimisations  :  4368
 total energy-change (2. order) : 0.6508411E-02  (-0.4376733E-02)
 number of electron     160.0000118 magnetization 
 augmentation part       50.0889970 magnetization 

 Broyden mixing:
  rms(total) = 0.10404E+00    rms(broyden)= 0.10404E+00
  rms(prec ) = 0.13152E+00
  weight for this iteration     100.00

 eigenvalues of (default mixing * dielectric matrix)
  average eigenvalue GAMMA=   0.8109
  2.1062  2.1062  1.2520  1.0534  1.0534  0.4433  0.3813  0.3813  0.1003  0.2195
  0.3364  0.2977

 Free energy of the ion-electron system (eV)
  ---------------------------------------------------
  alpha Z        PSCENC =       303.52543553
  Ewald energy   TEWEN  =     97993.85346281
  -Hartree energ DENC   =   -109892.70226441
  -exchange      EXHF   =         0.00000000
  -V(xc)+E(xc)   XCENC  =        40.64716840
  PAW double counting   =     14183.23298336   -13768.18883989
  entropy T*S    EENTRO =        -0.03747338
  eigenvalues    EBANDS =      -646.43578238
  atomic energy  EATOM  =     11693.69420960
  Solvation  Ediel_sol  =         0.00000000
  ---------------------------------------------------
  free energy    TOTEN  =       -92.41110036 eV

  energy without entropy =      -92.37362697  energy(sigma->0) =      -92.39860923


--------------------------------------------------------------------------------------------------------




--------------------------------------- Iteration      1(  18)  ---------------------------------------


    POTLOK:  cpu time    0.0166: real time    0.0167
    SETDIJ:  cpu time    0.0022: real time    0.0022
     EDDAV:  cpu time    4.8899: real time    4.8897
       DOS:  cpu time    0.0009: real time    0.0009
    CHARGE:  cpu time    0.1300: real time    0.1300
    MIXING:  cpu time    0.0012: real time    0.0012
    --------------------------------------------
      LOOP:  cpu time    5.0408: real time    5.0408

 eigenvalue-minimisations  :  5664
 total energy-change (2. order) : 0.6858979E-02  (-0.4719230E-02)
 number of electron     160.0000118 magnetization 
 augmentation part       50.0822492 magnetization 

 Broyden mixing:
  rms(total) = 0.65418E-01    rms(broyden)= 0.65413E-01
  rms(prec ) = 0.74094E-01
  weight for this iteration     100.00

 eigenvalues of (default mixing * dielectric matrix)
  average eigenvalue GAMMA=   0.8071
  2.1814  1.6854  1.6854  1.0062  1.0062  0.7807  0.1003  0.3826  0.3826  0.4186
  0.2196  0.3215  0.3215

 Free energy of the ion-electron system (eV)
  ---------------------------------------------------
  alpha Z        PSCENC =       303.52543553
  Ewald energy   TEWEN  =     97993.85346281
  -Hartree energ DENC   =   -109894.11218048
  -exchange      EXHF   =         0.00000000
  -V(xc)+E(xc)   XCENC  =        40.67366624
  PAW double counting   =     14172.02012366   -13756.85121375
  entropy T*S    EENTRO =        -0.03989761
  eigenvalues    EBANDS =      -645.16784739
  atomic energy  EATOM  =     11693.69420960
  Solvation  Ediel_sol  =         0.00000000
  ---------------------------------------------------
  free energy    TOTEN  =       -92.40424138 eV

  energy without entropy =      -92.36434377  energy(sigma->0) =      -92.39094218


--------------------------------------------------------------------------------------------------------




--------------------------------------- Iteration      1(  19)  ---------------------------------------


    POTLOK:  cpu time    0.0164: real time    0.0165
    SETDIJ:  cpu time    0.0021: real time    0.0021
     EDDAV:  cpu time    4.0883: real time    4.0883
       DOS:  cpu time    0.0010: real time    0.0010
    CHARGE:  cpu time    0.1308: real time    0.1308
    MIXING:  cpu time    0.0012: real time    0.0012
    --------------------------------------------
      LOOP:  cpu time    4.2398: real time    4.2398

 eigenvalue-minimisations  :  4680
 total energy-change (2. order) : 0.8678480E-03  (-0.4832331E-02)
 number of electron     160.0000118 magnetization 
 augmentation part       50.0834224 magnetization 

 Broyden mixing:
  rms(total) = 0.58520E-01    rms(broyden)= 0.58512E-01
  rms(prec ) = 0.69713E-01
  weight for this iteration     100.00

 eigenvalues of (default mixing * dielectric matrix)
  average eigenvalue GAMMA=   0.8121
  2.3283  1.7769  1.7769  1.0991  0.8745  0.8745  0.5871  0.1003  0.3839  0.3839
  0.2196  0.3410  0.3410  0.2821

 Free energy of the ion-electron system (eV)
  ---------------------------------------------------
  alpha Z        PSCENC =       303.52543553
  Ewald energy   TEWEN  =     97993.85346281
  -Hartree energ DENC   =   -109894.79436618
  -exchange      EXHF   =         0.00000000
  -V(xc)+E(xc)   XCENC  =        40.65907099
  PAW double counting   =     14188.94167230   -13773.86998095
  entropy T*S    EENTRO =        -0.04080945
  eigenvalues    EBANDS =      -644.37206818
  atomic energy  EATOM  =     11693.69420960
  Solvation  Ediel_sol  =         0.00000000
  ---------------------------------------------------
  free energy    TOTEN  =       -92.40337353 eV

  energy without entropy =      -92.36256408  energy(sigma->0) =      -92.38977038


--------------------------------------------------------------------------------------------------------




--------------------------------------- Iteration      1(  20)  ---------------------------------------


    POTLOK:  cpu time    0.0168: real time    0.0218
    SETDIJ:  cpu time    0.0023: real time    0.0023
     EDDAV:  cpu time    4.0640: real time    4.0640
       DOS:  cpu time    0.0010: real time    0.0010
    CHARGE:  cpu time    0.1307: real time    0.1306
    MIXING:  cpu time    0.0013: real time    0.0013
    --------------------------------------------
      LOOP:  cpu time    4.2160: real time    4.2209

 eigenvalue-minimisations  :  4656
 total energy-change (2. order) : 0.1797402E-02  (-0.5992025E-03)
 number of electron     160.0000118 magnetization 
 augmentation part       50.0823770 magnetization 

 Broyden mixing:
  rms(total) = 0.27480E-01    rms(broyden)= 0.27478E-01
  rms(prec ) = 0.32550E-01
  weight for this iteration     100.00

 eigenvalues of (default mixing * dielectric matrix)
  average eigenvalue GAMMA=   0.8458
  2.3420  1.7292  1.7292  1.2019  1.2019  0.8755  0.8755  0.6488  0.1003  0.3880
  0.3880  0.2196  0.3689  0.3195  0.2994

 Free energy of the ion-electron system (eV)
  ---------------------------------------------------
  alpha Z        PSCENC =       303.52543553
  Ewald energy   TEWEN  =     97993.85346281
  -Hartree energ DENC   =   -109895.11822895
  -exchange      EXHF   =         0.00000000
  -V(xc)+E(xc)   XCENC  =        40.66008648
  PAW double counting   =     14196.60152272   -13781.56271277
  entropy T*S    EENTRO =        -0.03967811
  eigenvalues    EBANDS =      -644.01567344
  atomic energy  EATOM  =     11693.69420960
  Solvation  Ediel_sol  =         0.00000000
  ---------------------------------------------------
  free energy    TOTEN  =       -92.40157613 eV

  energy without entropy =      -92.36189802  energy(sigma->0) =      -92.38835009


--------------------------------------------------------------------------------------------------------




--------------------------------------- Iteration      1(  21)  ---------------------------------------


    POTLOK:  cpu time    0.0166: real time    0.0166
    SETDIJ:  cpu time    0.0023: real time    0.0023
     EDDAV:  cpu time    4.7343: real time    4.7343
       DOS:  cpu time    0.0010: real time    0.0010
    CHARGE:  cpu time    0.1310: real time    0.1310
    MIXING:  cpu time    0.0013: real time    0.0013
    --------------------------------------------
      LOOP:  cpu time    4.8865: real time    4.8865

 eigenvalue-minimisations  :  5424
 total energy-change (2. order) : 0.3807355E-03  (-0.1944018E-03)
 number of electron     160.0000118 magnetization 
 augmentation part       50.0816384 magnetization 

 Broyden mixing:
  rms(total) = 0.12237E-01    rms(broyden)= 0.12235E-01
  rms(prec ) = 0.13424E-01
  weight for this iteration     100.00

 eigenvalues of (default mixing * dielectric matrix)
  average eigenvalue GAMMA=   0.8981
  2.4247  2.0817  1.6235  1.4544  1.4544  0.9719  0.8404  0.8404  0.5993  0.3873
  0.3873  0.1003  0.2196  0.3646  0.3231  0.2976

 Free energy of the ion-electron system (eV)
  ---------------------------------------------------
  alpha Z        PSCENC =       303.52543553
  Ewald energy   TEWEN  =     97993.85346281
  -Hartree energ DENC   =   -109896.05496292
  -exchange      EXHF   =         0.00000000
  -V(xc)+E(xc)   XCENC  =        40.66656345
  PAW double counting   =     14191.94687239   -13776.88460620
  entropy T*S    EENTRO =        -0.03916033
  eigenvalues    EBANDS =      -643.10900973
  atomic energy  EATOM  =     11693.69420960
  Solvation  Ediel_sol  =         0.00000000
  ---------------------------------------------------
  free energy    TOTEN  =       -92.40119539 eV

  energy without entropy =      -92.36203506  energy(sigma->0) =      -92.38814195


--------------------------------------------------------------------------------------------------------




--------------------------------------- Iteration      1(  22)  ---------------------------------------


    POTLOK:  cpu time    0.0165: real time    0.0165
    SETDIJ:  cpu time    0.0021: real time    0.0021
     EDDAV:  cpu time    4.1333: real time    4.1332
       DOS:  cpu time    0.0010: real time    0.0010
    CHARGE:  cpu time    0.1302: real time    0.1302
    MIXING:  cpu time    0.0014: real time    0.0014
    --------------------------------------------
      LOOP:  cpu time    4.2845: real time    4.2844

 eigenvalue-minimisations  :  4752
 total energy-change (2. order) : 0.1110946E-03  (-0.4380568E-04)
 number of electron     160.0000118 magnetization 
 augmentation part       50.0824264 magnetization 

 Broyden mixing:
  rms(total) = 0.36186E-02    rms(broyden)= 0.36168E-02
  rms(prec ) = 0.41472E-02
  weight for this iteration     100.00

 eigenvalues of (default mixing * dielectric matrix)
  average eigenvalue GAMMA=   0.9406
  2.6075  2.3285  1.6619  1.6619  1.2278  1.2278  0.8533  0.8533  0.8676  0.6200
  0.1003  0.3873  0.3873  0.2196  0.3651  0.3228  0.2979

 Free energy of the ion-electron system (eV)
  ---------------------------------------------------
  alpha Z        PSCENC =       303.52543553
  Ewald energy   TEWEN  =     97993.85346281
  -Hartree energ DENC   =   -109896.69510628
  -exchange      EXHF   =         0.00000000
  -V(xc)+E(xc)   XCENC  =        40.67056467
  PAW double counting   =     14188.97738941   -13773.89894201
[...]
     80      -1.0830      2.06355
     81      -1.0525      2.07076
     82      -1.0358      2.06968
     83      -0.9883      2.03148
     84      -0.9555      1.95960
     85      -0.9092      1.77328
     86      -0.8810      1.60793
     87      -0.1939     -0.00014
     88       0.0416     -0.00000
     89       0.0939     -0.00000
     90       1.7787     -0.00000
     91       2.0911     -0.00000
     92       2.1376     -0.00000
     93       3.9142     -0.00000
     94       4.0229     -0.00000
     95       4.3271     -0.00000
     96       4.4381     -0.00000

 k-point    19 :       0.4375    0.4375    0.0000
  band No.  band energies     occupation 
      1      -8.7437      2.00000
      2      -8.0729      2.00000
      3      -7.6105      2.00000
      4      -7.2159      2.00000
      5      -6.7506      2.00000
      6      -6.5921      2.00000
      7      -6.5900      2.00000
      8      -6.5661      2.00000
      9      -6.4809      2.00000
     10      -6.4633      2.00000
     11      -6.4494      2.00000
     12      -6.2242      2.00000
     13      -6.1029      2.00000
     14      -6.0867      2.00000
     15      -5.9846      2.00000
     16      -5.8380      2.00000
     17      -5.8069      2.00000
     18      -5.6020      2.00000
     19      -5.5795      2.00000
     20      -5.4787      2.00000
     21      -5.3477      2.00000
     22      -5.3212      2.00000
     23      -5.2753      2.00000
     24      -5.1857      2.00000
     25      -5.0879      2.00000
     26      -5.0156      2.00000
     27      -4.9837      2.00000
     28      -4.8085      2.00000
     29      -4.8037      2.00000
     30      -4.6644      2.00000
     31      -4.6416      2.00000
     32      -4.5400      2.00000
     33      -4.5289      2.00000
     34      -4.4371      2.00000
     35      -4.3607      2.00000
     36      -4.2441      2.00000
     37      -4.1357      2.00000
     38      -4.0731      2.00000
     39      -3.9834      2.00000
     40      -3.8702      2.00000
     41      -3.7884      2.00000
     42      -3.7659      2.00000
     43      -3.7304      2.00000
     44      -3.6745      2.00000
     45      -3.6507      2.00000
     46      -3.6196      2.00000
     47      -3.5833      2.00000
     48      -3.5608      2.00000
     49      -3.5413      2.00000
     50      -3.4586      2.00000
     51      -3.4082      2.00000
     52      -3.3190      2.00000
     53      -3.2104      2.00000
     54      -3.0451      2.00000
     55      -2.9623      2.00000
     56      -2.9286      2.00000
     57      -2.8581      2.00000
     58      -2.7954      2.00000
     59      -2.7623      2.00000
     60      -2.5787      2.00000
     61      -2.4787      2.00000
     62      -2.4582      2.00000
     63      -2.4341      2.00000
     64      -2.3180      2.00000
     65      -2.2786      2.00000
     66      -2.2184      2.00000
     67      -2.1305      2.00000
     68      -2.0746      2.00000
     69      -2.0058      2.00000
     70      -1.9998      2.00000
     71      -1.9320      2.00000
     72      -1.8840      2.00000
     73      -1.8665      2.00000
     74      -1.6942      2.00000
     75      -1.4338      2.00008
     76      -1.2710      2.00459
     77      -1.2021      2.01622
     78      -1.1039      2.05489
     79      -0.8415      1.31953
     80      -0.7820      0.82363
     81      -0.7727      0.74700
     82      -0.7385      0.48458
     83      -0.6410      0.01482
     84      -0.5126     -0.05947
     85      -0.3750     -0.00992
     86      -0.2836     -0.00149
     87       1.1544     -0.00000
     88       1.2411     -0.00000
     89       1.2614     -0.00000
     90       1.7157     -0.00000
     91       1.7762     -0.00000
     92       1.8008     -0.00000
     93       2.7584     -0.00000
     94       2.8647     -0.00000
     95       3.2811     -0.00000
     96       4.3692     -0.00000

 k-point    20 :      -0.4375    0.4375    0.0000
  band No.  band energies     occupation 
      1      -8.3190      2.00000
      2      -8.2849      2.00000
      3      -7.3180      2.00000
      4      -7.2554      2.00000
      5      -6.8404      2.00000
      6      -6.5892      2.00000
      7      -6.5169      2.00000
      8      -6.4537      2.00000
      9      -6.3573      2.00000
     10      -6.2783      2.00000
     11      -6.2060      2.00000
     12      -6.1422      2.00000
     13      -6.1327      2.00000
     14      -5.9497      2.00000
     15      -5.8025      2.00000
     16      -5.7094      2.00000
     17      -5.7054      2.00000
     18      -5.6865      2.00000
     19      -5.5612      2.00000
     20      -5.4330      2.00000
     21      -5.3444      2.00000
     22      -5.2961      2.00000
     23      -5.2722      2.00000
     24      -5.2275      2.00000
     25      -5.1690      2.00000
     26      -5.0878      2.00000
     27      -5.0550      2.00000
     28      -4.9789      2.00000
     29      -4.8112      2.00000
     30      -4.6904      2.00000
     31      -4.6713      2.00000
     32      -4.6191      2.00000
     33      -4.5689      2.00000
     34      -4.4599      2.00000
     35      -4.4351      2.00000
     36      -4.3125      2.00000
     37      -4.2369      2.00000
     38      -4.1711      2.00000
     39      -4.1250      2.00000
     40      -4.1186      2.00000
     41      -4.0654      2.00000
     42      -3.9527      2.00000
     43      -3.8243      2.00000
     44      -3.7251      2.00000
     45      -3.7073      2.00000
     46      -3.6844      2.00000
     47      -3.6433      2.00000
     48      -3.6367      2.00000
     49      -3.6013      2.00000
     50      -3.5448      2.00000
     51      -3.3899      2.00000
     52      -3.3094      2.00000
     53      -3.1346      2.00000
     54      -2.9683      2.00000
     55      -2.9411      2.00000
     56      -2.9188      2.00000
     57      -2.8590      2.00000
     58      -2.7980      2.00000
     59      -2.6012      2.00000
     60      -2.5620      2.00000
     61      -2.5298      2.00000
     62      -2.4863      2.00000
     63      -2.4414      2.00000
     64      -2.3357      2.00000
     65      -2.2326      2.00000
     66      -2.1551      2.00000
     67      -2.1180      2.00000
     68      -2.1025      2.00000
     69      -2.0471      2.00000
     70      -1.9568      2.00000
     71      -1.9181      2.00000
     72      -1.8413      2.00000
     73      -1.7356      2.00000
     74      -1.6528      2.00000
     75      -1.4683      2.00003
     76      -1.3277      2.00131
     77      -1.2278      2.01050
     78      -1.1327      2.04168
     79      -0.9431      1.92017
     80      -0.8899      1.66423
     81      -0.8628      1.48193
     82      -0.7831      0.83260
     83      -0.6471      0.03076
     84      -0.5104     -0.05854
     85      -0.4233     -0.02188
     86      -0.3326     -0.00437
     87       0.2436     -0.00000
     88       0.4423     -0.00000
     89       1.4301     -0.00000
     90       1.5570     -0.00000
     91       1.5695     -0.00000
     92       2.3900     -0.00000
     93       3.1158     -0.00000
     94       3.4395     -0.00000
     95       3.9381     -0.00000
     96       4.0099     -0.00000


--------------------------------------------------------------------------------------------------------


 soft charge-density along one line, spin component           1
         0         1         2         3         4         5         6         7         8         9
 total charge-density along one line
 
 pseudopotential strength for first ion, spin component:           1
 -8.090   0.000  -0.000  -0.006  -0.000  -8.235   0.000  -0.000
  0.000  -8.020  -0.000   0.000  -0.006   0.000  -8.167  -0.000
 -0.000  -0.000  -8.012  -0.000  -0.000  -0.000  -0.000  -8.159
 -0.006   0.000  -0.000  -8.020   0.000  -0.006   0.000  -0.000
 -0.000  -0.006  -0.000   0.000  -8.090  -0.000  -0.006  -0.000
 -8.235   0.000  -0.000  -0.006  -0.000  -8.365   0.000  -0.000
  0.000  -8.167  -0.000   0.000  -0.006   0.000  -8.298  -0.000
 -0.000  -0.000  -8.159  -0.000  -0.000  -0.000  -0.000  -8.290
 -0.006   0.000  -0.000  -8.167   0.000  -0.006   0.000  -0.000
 -0.000  -0.006  -0.000   0.000  -8.235  -0.000  -0.006  -0.000
 -0.000  -0.000  -0.023  -0.000  -0.000  -0.000  -0.000  -0.023
 -0.000  -0.000  -0.033  -0.000  -0.000  -0.000  -0.000  -0.033
 -0.000  -0.000   0.000  -0.000   0.000  -0.000   0.000   0.000
 -0.000   0.000  -0.002   0.000  -0.000  -0.000   0.000  -0.002
  0.000  -0.000   0.000  -0.000  -0.000   0.000  -0.000   0.000
 -0.000   0.001   0.000  -0.000   0.001  -0.000   0.002   0.000
 -0.000   0.000  -0.001   0.000  -0.000  -0.000   0.000  -0.000
  0.001  -0.000   0.000   0.001  -0.000   0.001  -0.000   0.000
 total augmentation occupancy for first ion, spin component:           1
  4.884   0.000  -0.000  -0.059   0.000  -3.039   0.000   0.000  -0.034   0.000  -0.000   0.000   0.000   0.000  -0.047  -0.000
  0.000   4.811   0.000   0.000  -0.059   0.000  -2.546   0.000  -0.000  -0.032  -0.000   0.000  -0.221   0.000   0.000   0.012
 -0.000   0.000   5.484   0.000  -0.000   0.000   0.000  -3.295   0.000   0.000   0.806  -0.059   0.000  -0.376   0.000  -0.000
 -0.059   0.000   0.000   4.811   0.000  -0.032   0.000   0.000  -2.546  -0.000   0.000  -0.000   0.000   0.000  -0.221   0.000
  0.000  -0.059  -0.000   0.000   4.884   0.000  -0.034   0.000  -0.000  -3.039  -0.000   0.000  -0.047   0.000  -0.000   0.002
 -3.039   0.000   0.000  -0.032  -0.000   3.058  -0.000  -0.000   0.104   0.000   0.000  -0.000  -0.000  -0.000   0.044   0.000
  0.000  -2.546   0.000   0.000  -0.034  -0.000   2.238  -0.000   0.000   0.104   0.000   0.000   0.207   0.000   0.000  -0.010
  0.000   0.000  -3.295   0.000   0.000  -0.000  -0.000   3.051  -0.000  -0.000  -0.743   0.077  -0.000   0.377  -0.000   0.000
 -0.034  -0.000   0.000  -2.546  -0.000   0.104   0.000  -0.000   2.238   0.000   0.000   0.000   0.000  -0.000   0.207  -0.000
  0.000  -0.032   0.000  -0.000  -3.039  -0.000   0.104  -0.000   0.000   3.058   0.000  -0.000   0.044  -0.000   0.000  -0.002
 -0.000  -0.000   0.806   0.000  -0.000   0.000   0.000  -0.743   0.000   0.000   2.547  -0.577   0.000   0.173  -0.000   0.000
  0.000  -0.000  -0.059   0.000   0.000  -0.000   0.000   0.077   0.000  -0.000  -0.577   0.173   0.000  -0.078   0.000   0.000
  0.000  -0.221   0.000  -0.000  -0.047  -0.000   0.207  -0.000   0.000   0.044   0.000   0.000   0.235   0.000   0.000  -0.007
  0.000  -0.000  -0.376   0.000   0.000  -0.000   0.000   0.377  -0.000  -0.000   0.173  -0.078   0.000   0.133   0.000   0.000
 -0.047  -0.000   0.000  -0.221  -0.000   0.044   0.000  -0.000   0.207   0.000   0.000   0.000   0.000  -0.000   0.235  -0.000
 -0.000   0.012  -0.000   0.000   0.002   0.000  -0.010   0.000   0.000  -0.002   0.000  -0.000  -0.007   0.000  -0.000   0.000
 -0.000   0.000   0.009  -0.000  -0.000   0.000  -0.000  -0.011   0.000   0.000  -0.009   0.003  -0.000  -0.004   0.000   0.000
  0.002   0.000  -0.000   0.012   0.000  -0.002   0.000   0.000  -0.010  -0.000   0.000   0.000   0.000   0.000  -0.007   0.000


------------------------ aborting loop because EDIFF is reached ----------------------------------------



 DIPCOR: dipole corrections for dipol
 direction  3 min pos     2,
 dipolmoment           0.000000      0.000000      0.017942 electrons x Angstroem
 Tr[quadrupol]      -944.325858

 energy correction for charged system         0.000000 eV
 dipol+quadrupol energy correction            0.000035 eV
 added-field ion interaction          0.000000 eV  (added to PSCEN)

 
  *************** adding dipol energy to TOTEN NOW **************** 
    CHARGE:  cpu time    0.1305: real time    0.1305
    FORLOC:  cpu time    0.0023: real time    0.0023
    FORNL :  cpu time    1.7520: real time    1.7520
    STRESS:  cpu time    2.9480: real time    2.9479
    FORCOR:  cpu time    0.0182: real time    0.0182
    FORHAR:  cpu time    0.0055: real time    0.0055
    MIXING:  cpu time    0.0014: real time    0.0015
    OFIELD:  cpu time    0.0000: real time    0.0000

  FORCE on cell =-STRESS in cart. coord.  units (eV):
  Direction    XX          YY          ZZ          XY          YZ          ZX
  --------------------------------------------------------------------------------------
  Alpha Z   303.52544   303.52544   303.52544
  Ewald  106884.73146106884.73146************     0.00000    -0.00000    -0.00000
  Hartree109195.98383109195.98383************    -0.00000     0.00000     0.00000
  E(xc)    -709.79797  -709.79799  -714.53064     0.00002    -0.00000    -0.00001
  Local  ************************221420.55343     0.00104    -0.00004    -0.00007
  n-local    96.20425    22.03726    41.67279   -21.61563    -4.52058     2.51776
  augment   834.10871   834.10959   862.91566    -0.00076     0.00001     0.00001
  Kinetic  2293.18113  2271.07409  2353.80628    -6.16505    -6.10565     4.05947
  Fock        0.00000     0.00000     0.00000     0.00000     0.00000     0.00000
  -------------------------------------------------------------------------------------
  Total     -11.15659   -11.15659    -1.06347     0.00000    -0.00000     0.00000
  in kB     -21.68939   -21.68939    -2.06748     0.00000    -0.00000     0.00000
  external pressure =      -15.15 kB  Pullay stress =        0.00 kB


 VOLUME and BASIS-vectors are now :
 -----------------------------------------------------------------------------
  energy-cutoff  :      350.00
  volume of cell :      824.13
      direct lattice vectors                 reciprocal lattice vectors
     5.557859300  0.000000000  0.000000000     0.179925390 -0.103879972  0.000000000
     2.778929650  4.813247345  0.000000000     0.000000000  0.207759944  0.000000000
     0.000000000  0.000000000 30.806959674     0.000000000  0.000000000  0.032460198

  length of vectors
     5.557859300  5.557859300 30.806959674     0.207759944  0.207759944  0.032460198


 FORCES acting on ions
    electron-ion (+dipol)            ewald-force                    non-local-force                 convergence-correction
 -----------------------------------------------------------------------------------------------
   0.858E-06 0.495E-06 0.309E+04   -.969E-12 -.640E-12 -.309E+04   -.239E-17 0.434E-18 -.525E+00   -.702E-08 -.405E-08 -.595E-02
   0.821E-06 -.250E+00 0.281E+04   -.958E-12 0.285E+00 -.281E+04   -.520E-17 -.652E-01 -.103E+01   -.278E-08 0.272E-02 -.461E-02
   -.216E+00 0.125E+00 0.281E+04   0.247E+00 -.142E+00 -.281E+04   -.564E-01 0.326E-01 -.103E+01   0.236E-02 -.136E-02 -.461E-02
   0.216E+00 0.125E+00 0.281E+04   -.247E+00 -.142E+00 -.281E+04   0.564E-01 0.326E-01 -.103E+01   -.236E-02 -.136E-02 -.461E-02
   -.958E+01 -.553E+01 0.889E+03   0.990E+01 0.572E+01 -.888E+03   -.418E-01 -.242E-01 -.336E+00   0.947E-02 0.546E-02 -.644E-01
   0.958E+01 -.553E+01 0.889E+03   -.990E+01 0.572E+01 -.888E+03   0.418E-01 -.242E-01 -.336E+00   -.947E-02 0.546E-02 -.644E-01
   0.125E-05 0.111E+02 0.889E+03   0.322E-11 -.114E+02 -.888E+03   0.000E+00 0.483E-01 -.336E+00   0.102E-08 -.109E-01 -.644E-01
   0.128E-05 0.737E-06 0.899E+03   0.273E-11 0.168E-11 -.899E+03   -.434E-18 0.000E+00 -.220E+00   0.273E-08 0.158E-08 -.709E-01
   -.135E-05 -.290E+00 -.974E+03   -.293E-11 0.285E+00 0.974E+03   0.130E-17 -.150E-01 0.372E+00   -.367E-09 0.136E-02 -.165E+00
   0.252E+00 0.145E+00 -.974E+03   -.247E+00 -.142E+00 0.974E+03   0.130E-01 0.748E-02 0.372E+00   -.118E-02 -.682E-03 -.165E+00
   -.252E+00 0.145E+00 -.974E+03   0.247E+00 -.142E+00 0.974E+03   -.130E-01 0.748E-02 0.372E+00   0.118E-02 -.682E-03 -.165E+00
   -.102E-05 -.590E-06 -.282E+04   0.763E-12 0.457E-12 0.282E+04   0.108E-18 0.000E+00 0.875E+00   0.557E-09 0.321E-09 -.588E-01
   -.980E-06 -.529E+01 -.282E+04   0.117E-11 0.553E+01 0.282E+04   0.000E+00 -.124E+00 0.900E+00   0.865E-08 0.116E-02 -.590E-01
   -.458E+01 0.264E+01 -.282E+04   0.479E+01 -.277E+01 0.282E+04   -.108E+00 0.622E-01 0.900E+00   0.100E-02 -.578E-03 -.590E-01
   0.458E+01 0.264E+01 -.282E+04   -.479E+01 -.277E+01 0.282E+04   0.108E+00 0.622E-01 0.900E+00   -.100E-02 -.578E-03 -.590E-01
   -.493E-07 -.285E-07 -.876E+03   -.267E-11 -.168E-11 0.876E+03   0.339E-18 -.732E-18 0.163E+00   0.157E-08 0.906E-09 -.156E+00
 -----------------------------------------------------------------------------------------------
   0.430E-06 0.248E-06 0.117E+01   0.284E-14 -.628E-14 -.205E-11   -.413E-16 -.146E-16 0.142E-02   0.137E-08 0.789E-09 -.117E+01
 
 
 POSITION                                       TOTAL-FORCE (eV/Angst)
 -----------------------------------------------------------------------------------
      0.00000      0.00000     12.00000         0.000000     -0.000000     -1.100212
      2.77893      0.00000     12.00000        -0.000000     -0.027326      0.027099
      1.38946      2.40662     12.00000        -0.023665      0.013663      0.027099
      4.16839      2.40662     12.00000         0.023665      0.013663      0.027099
      1.38946      0.80221     14.31554         0.291187      0.168117      0.483226
      4.16839      0.80221     14.31554        -0.291187      0.168117      0.483226
      2.77893      3.20883     14.31554         0.000000     -0.336234      0.483226
      5.55786      3.20883     14.31554         0.000000     -0.000000     -0.095871
      5.55786      1.60442     16.61120        -0.000000     -0.019236      0.013743
      6.94732      4.01104     16.61120         0.016659      0.009618      0.013743
      4.16839      4.01104     16.61120        -0.016659      0.009618      0.013743
      0.00000      0.00000     18.94198        -0.000000     -0.000000      0.014619
      2.77893      0.00000     18.94198        -0.000000      0.125624     -0.229220
      1.38946      2.40662     18.94198         0.108794     -0.062812     -0.229220
      4.16839      2.40662     18.94198        -0.108794     -0.062812     -0.229220
      2.77893      1.60442     16.61120         0.000000     -0.000000      0.296919
 -----------------------------------------------------------------------------------
    total drift:                                0.000000      0.000000     -0.000525


--------------------------------------------------------------------------------------------------------



  FREE ENERGIE OF THE ION-ELECTRON SYSTEM (eV)
  ---------------------------------------------------
  free  energy   TOTEN  =       -92.40105494 eV

  energy  without entropy=      -92.36190815  energy(sigma->0) =      -92.38800601
 


--------------------------------------------------------------------------------------------------------


    POTLOK:  cpu time    0.0194: real time    0.0194


--------------------------------------------------------------------------------------------------------


     LOOP+:  cpu time  108.7789: real time  108.8104
    4ORBIT:  cpu time    0.0000: real time    0.0000

 total amount of memory used by VASP MPI-rank0   165803. kBytes
=======================================================================

   base      :      30000. kBytes
   nonl-proj :     109741. kBytes
   fftplans  :       2015. kBytes
   grid      :       7641. kBytes
   one-center:        248. kBytes
   wavefun   :      16158. kBytes
 
  
  
 General timing and accounting informations for this job:
 ========================================================
  
                  Total CPU time used (sec):      111.162
                            User time (sec):      110.631
                          System time (sec):        0.531
                         Elapsed time (sec):      111.473
  
                   Maximum memory used (kb):      197116.
                   Average memory used (kb):           0.
  
                          Minor page faults:        54604
                          Major page faults:           18
                 Voluntary context switches:          554
