 vasp.5.4.4.18Apr17-6-g9f103f2a35 (build Apr 28 2017 10:53:45) complex          
  
 executed on             LinuxIFC date 2020.02.16  20:50:41
 running on   24 total cores
 distrk:  each k-point on   24 cores,    1 groups
 distr:  one band on NCORES_PER_BAND=   1 cores,   24 groups


--------------------------------------------------------------------------------------------------------


 INCAR:
 POTCAR:    PAW_PBE Ir 06Sep2000                  
 POTCAR:    PAW_PBE Pt 04Feb2005                  
 POTCAR:    PAW_PBE Au 04Oct2007                  

 ----------------------------------------------------------------------------- 
|                                                                             |
|           W    W    AA    RRRRR   N    N  II  N    N   GGGG   !!!           |
|           W    W   A  A   R    R  NN   N  II  NN   N  G    G  !!!           |
|           W    W  A    A  R    R  N N  N  II  N N  N  G       !!!           |
|           W WW W  AAAAAA  RRRRR   N  N N  II  N  N N  G  GGG   !            |
|           WW  WW  A    A  R   R   N   NN  II  N   NN  G    G                |
|           W    W  A    A  R    R  N    N  II  N    N   GGGG   !!!           |
|                                                                             |
|      For optimal performance we recommend to set                            |
|        NCORE= 4 - approx SQRT( number of cores)                             |
|      NCORE specifies how many cores store one orbital (NPAR=cpu/NCORE).     |
|      This setting can  greatly improve the performance of VASP for DFT.     |
|      The default,   NCORE=1            might be grossly inefficient         |
|      on modern multi-core architectures or massively parallel machines.     |
|      Do your own testing !!!!                                               |
|      Unfortunately you need to use the default for GW and RPA calculations. |
|      (for HF NCORE is supported but not extensively tested yet)             |
|                                                                             |
 ----------------------------------------------------------------------------- 

 POTCAR:    PAW_PBE Ir 06Sep2000                  
   SHA256 =  7c6af8d4d487b237782eb51e6f62977b27a1da78c3c96acd1cebefd6c308f120 Ir
   COPYR  = (c) Copyright 06Sep2000 Georg Kresse                                
   COPYR  = This file is part of the software VASP. Any use, copying, and all ot
   COPYR  = If you do not have a valid VASP license, you may not use, copy or di
   VRHFIN =Ir: s1d8                                                             
   LEXCH  = PE                                                                  
   EATOM  =   560.1833 eV,   41.1723 Ry                                         
                                                                                
   TITEL  = PAW_PBE Ir 06Sep2000                                                
   LULTRA =        F    use ultrasoft PP ?                                      
   IUNSCR =        1    unscreen: 0-lin 1-nonlin 2-no                           
   RPACOR =    2.250    partial core radius                                     
   POMASS =  192.220; ZVAL   =    9.000    mass and valenz                      
   RCORE  =    2.600    outmost cutoff radius                                   
   RWIGS  =    2.690; RWIGS  =    1.423    wigner-seitz radius (au A)           
   ENMAX  =  210.864; ENMIN  =  158.148 eV                                      
   RCLOC  =    1.857    cutoff for local pot                                    
   LCOR   =        T    correct aug charges                                     
   LPAW   =        T    paw PP                                                  
   EAUG   =  318.962                                                            
   DEXC   =    0.000                                                            
   RMAX   =    2.667    core radius for proj-oper                               
   RAUG   =    1.300    factor for augmentation sphere                          
   RDEP   =    2.748    radius for radial grids                                 
   RDEPT  =    2.300    core radius for aug-charge                              
                                                                                
   Atomic configuration                                                         
   16 entries                                                                   
     n  l   j            E        occ.                                          
     1  0  0.50    -76100.0449   2.0000                                         
     2  0  0.50    -13308.1683   2.0000                                         
     2  1  1.50    -11558.0021   6.0000                                         
     3  0  0.50     -3110.7274   2.0000                                         
     3  1  1.50     -2599.2109   6.0000                                         
     3  2  2.50     -2037.1515  10.0000                                         
     4  0  0.50      -661.6001   2.0000                                         
     4  1  1.50      -493.8981   6.0000                                         
     4  2  2.50      -288.1909  10.0000                                         
     4  3  3.50       -59.5718  14.0000                                         
     5  0  0.50       -95.3879   2.0000                                         
     5  1  1.50       -52.2747   6.0000                                         
     5  2  2.50        -5.4180   8.0000                                         
     6  0  0.50        -5.5479   1.0000                                         
     6  1  1.50        -6.8029   0.0000                                         
     5  3  2.50        -1.3606   0.0000                                         
   Description                                                                  
     l       E           TYP  RCUT    TYP  RCUT                                 
     2     -5.4179967     23  2.600                                             
     2     -6.7785793     23  2.600                                             
     0     -5.5478636     23  2.600                                             
     0      2.2542272     23  2.600                                             
     1     -2.7211652     23  2.600                                             
     1     20.4087390     23  2.600                                             
  local pseudopotential read in
  partial core-charges read in
  partial kinetic energy density read in
  atomic valenz-charges read in
  non local Contribution for L=           2  read in
    real space projection operators read in
  non local Contribution for L=           2  read in
    real space projection operators read in
  non local Contribution for L=           0  read in
    real space projection operators read in
  non local Contribution for L=           0  read in
    real space projection operators read in
  non local Contribution for L=           1  read in
    real space projection operators read in
  non local Contribution for L=           1  read in
    real space projection operators read in
    PAW grid and wavefunctions read in
 
   number of l-projection  operators is LMAX  =           6
   number of lm-projection operators is LMMAX =          18
 
 POTCAR:    PAW_PBE Pt 04Feb2005                  
   SHA256 =  3ed90460adef76debcff1cfb73ee1349b515b1a3db03439735b44de3a8db7dc8 Pt
   COPYR  = (c) Copyright 04Feb2005 Georg Kresse                                
   COPYR  = This file is part of the software VASP. Any use, copying, and all ot
   COPYR  = If you do not have a valid VASP license, you may not use, copy or di
   VRHFIN =Pt: s1d9                                                             
   LEXCH  = PE                                                                  
   EATOM  =   729.1176 eV,   53.5886 Ry                                         
                                                                                
   TITEL  = PAW_PBE Pt 04Feb2005                                                
   LULTRA =        F    use ultrasoft PP ?                                      
   IUNSCR =        1    unscreen: 0-lin 1-nonlin 2-no                           
   RPACOR =    2.330    partial core radius                                     
   POMASS =  195.080; ZVAL   =   10.000    mass and valenz                      
   RCORE  =    2.600    outmost cutoff radius                                   
   RWIGS  =    2.750; RWIGS  =    1.455    wigner-seitz radius (au A)           
   ENMAX  =  230.283; ENMIN  =  172.712 eV                                      
   ICORE  =        3    local potential                                         
   LCOR   =        T    correct aug charges                                     
   LPAW   =        T    paw PP                                                  
   EAUG   =  358.966                                                            
   DEXC   =    0.000                                                            
   RMAX   =    2.658    core radius for proj-oper                               
   RAUG   =    1.300    factor for augmentation sphere                          
   RDEP   =    2.761    radius for radial grids                                 
   RDEPT  =    2.203    core radius for aug-charge                              
                                                                                
   Atomic configuration                                                         
   16 entries                                                                   
     n  l   j            E        occ.                                          
     1  0  0.50    -78401.1885   2.0000                                         
     2  0  0.50    -13770.7750   2.0000                                         
     2  1  1.50    -11931.0468   6.0000                                         
     3  0  0.50     -3234.7234   2.0000                                         
     3  1  1.50     -2699.2216   6.0000                                         
     3  2  2.50     -2119.5714  10.0000                                         
     4  0  0.50      -695.1528   2.0000                                         
     4  1  1.50      -519.6034   6.0000                                         
     4  2  2.50      -306.6786  10.0000                                         
     4  3  3.50       -70.1041  14.0000                                         
     5  0  0.50      -101.7747   2.0000                                         
     5  1  1.50       -55.9873   6.0000                                         
     5  2  2.50        -6.1423   9.0000                                         
     6  0  0.50        -5.6573   1.0000                                         
     6  1  1.50        -6.8029   0.0000                                         
     5  3  2.50        -1.3606   0.0000                                         
   Description                                                                  
     l       E           TYP  RCUT    TYP  RCUT                                 
     2     -6.1423404     23  2.500                                             
     2     -7.5029230     23  2.500                                             
     0     -5.6573207     23  2.500                                             
     0      0.7416693     23  2.500                                             
     1     -2.7211652     23  2.600                                             
     1     20.4087390     23  2.600                                             
     3     -1.3605826     23  2.500                                             
  local pseudopotential read in
  partial core-charges read in
  partial kinetic energy density read in
  atomic valenz-charges read in
  non local Contribution for L=           2  read in
    real space projection operators read in
  non local Contribution for L=           2  read in
    real space projection operators read in
  non local Contribution for L=           0  read in
    real space projection operators read in
  non local Contribution for L=           0  read in
    real space projection operators read in
  non local Contribution for L=           1  read in
    real space projection operators read in
  non local Contribution for L=           1  read in
    real space projection operators read in
    PAW grid and wavefunctions read in
 
   number of l-projection  operators is LMAX  =           6
   number of lm-projection operators is LMMAX =          18
 
 POTCAR:    PAW_PBE Au 04Oct2007                  
   SHA256 =  d0044ae04e2bdce24051b198fc5c053d722a5bc6fe3c3b100514a13fc5d2db88 Au
   COPYR  = (c) Copyright 04Oct2007 Georg Kresse                                
   COPYR  = This file is part of the software VASP. Any use, copying, and all ot
   COPYR  = If you do not have a valid VASP license, you may not use, copy or di
   VRHFIN =Au: s1d10                                                            
   LEXCH  = PE                                                                  
   EATOM  =   926.0867 eV,   68.0654 Ry                                         
                                                                                
   TITEL  = PAW_PBE Au 04Oct2007                                                
   LULTRA =        F    use ultrasoft PP ?                                      
   IUNSCR =        1    unscreen: 0-lin 1-nonlin 2-no                           
   RPACOR =    2.330    partial core radius                                     
   POMASS =  196.966; ZVAL   =   11.000    mass and valenz                      
   RCORE  =    2.500    outmost cutoff radius                                   
   RWIGS  =    2.840; RWIGS  =    1.503    wigner-seitz radius (au A)           
   ENMAX  =  229.943; ENMIN  =  172.457 eV                                      
   ICORE  =        3    local potential                                         
   LCOR   =        T    correct aug charges                                     
   LPAW   =        T    paw PP                                                  
   EAUG   =  356.670                                                            
   DEXC   =    0.000                                                            
   RMAX   =    2.562    core radius for proj-oper                               
   RAUG   =    1.300    factor for augmentation sphere                          
   RDEP   =    2.598    radius for radial grids                                 
   RDEPT  =    2.193    core radius for aug-charge                              
                                                                                
   Atomic configuration                                                         
   16 entries                                                                   
     n  l   j            E        occ.                                          
     1  0  0.50    -80748.5001   2.0000                                         
     2  0  0.50    -14244.7466   2.0000                                         
     2  1  1.50    -12310.9591   6.0000                                         
     3  0  0.50     -3362.1768   2.0000                                         
     3  1  1.50     -2801.5463   6.0000                                         
     3  2  2.50     -2203.8206  10.0000                                         
     4  0  0.50      -729.8168   2.0000                                         
     4  1  1.50      -546.0527   6.0000                                         
     4  2  2.50      -325.7302  10.0000                                         
     4  3  3.50       -81.1472  14.0000                                         
     5  0  0.50      -108.3201   2.0000                                         
     5  1  1.50       -59.7479   6.0000                                         
     5  2  2.50        -6.8783  10.0000                                         
     6  0  0.50        -5.7602   1.0000                                         
     6  1  1.50        -6.8029   0.0000                                         
     5  3  2.50        -1.3606   0.0000                                         
   Description                                                                  
     l       E           TYP  RCUT    TYP  RCUT                                 
     2     -6.8782861     23  2.500                                             
     2     -8.2388687     23  2.500                                             
     0     -5.7601759     23  2.500                                             
     0     -0.8493231     23  2.500                                             
     1     -2.7211652     23  2.500                                             
     1     27.2116520     23  2.500                                             
     3     -1.3605826     23  2.500                                             
  local pseudopotential read in
  partial core-charges read in
  partial kinetic energy density read in
  atomic valenz-charges read in
  non local Contribution for L=           2  read in
    real space projection operators read in
  non local Contribution for L=           2  read in
    real space projection operators read in
  non local Contribution for L=           0  read in
    real space projection operators read in
  non local Contribution for L=           0  read in
    real space projection operators read in
  non local Contribution for L=           1  read in
    real space projection operators read in
  non local Contribution for L=           1  read in
    real space projection operators read in
    PAW grid and wavefunctions read in
 
   number of l-projection  operators is LMAX  =           6
   number of lm-projection operators is LMMAX =          18
 
  PAW_PBE Ir 06Sep2000                  :
 energy of atom  1       EATOM= -560.1833
 kinetic energy error for atom=    0.0056 (will be added to EATOM!!)
  PAW_PBE Pt 04Feb2005                  :
 energy of atom  2       EATOM= -729.1176
 kinetic energy error for atom=    0.0144 (will be added to EATOM!!)
  PAW_PBE Au 04Oct2007                  :
 energy of atom  3       EATOM= -926.0867
 kinetic energy error for atom=    0.0152 (will be added to EATOM!!)
 
 
 POSCAR: Ir Pt Au                                
  positions in cartesian coordinates
  No initial velocities read in
 exchange correlation table for  LEXCH =        8
   RHO(1)=    0.500       N(1)  =     2000
   RHO(2)=  100.500       N(2)  =     4000
 


--------------------------------------------------------------------------------------------------------


 ion  position               nearest neighbor table
   1  0.000  0.000  0.390-   3 2.78   3 2.78   4 2.78   4 2.78   2 2.78   2 2.78   5 2.82   6 2.82
                             7 2.82
   2  0.500  0.000  0.390-   4 2.78   3 2.78   4 2.78   3 2.78   1 2.78   1 2.78   6 2.82   5 2.82
                             8 2.82
   3  0.000  0.500  0.390-   1 2.78   1 2.78   2 2.78   2 2.78   4 2.78   4 2.78   7 2.82   5 2.82
                             8 2.82
   4  0.500  0.500  0.390-   2 2.78   1 2.78   2 2.78   1 2.78   3 2.78   3 2.78   8 2.82   7 2.82
                             6 2.82
   5  0.167  0.167  0.465-   7 2.78   7 2.78   8 2.78   8 2.78   6 2.78   6 2.78   9 2.80  12 2.80
                            10 2.80   1 2.82   3 2.82   2 2.82
   6  0.667  0.167  0.465-   8 2.78   7 2.78   8 2.78   7 2.78   5 2.78   5 2.78  10 2.80  11 2.80
                             9 2.80   2 2.82   4 2.82   1 2.82
   7  0.167  0.667  0.465-   5 2.78   5 2.78   6 2.78   6 2.78   8 2.78   8 2.78  10 2.80  11 2.80
                            12 2.80   3 2.82   4 2.82   1 2.82
   8  0.667  0.667  0.465-   6 2.78   5 2.78   6 2.78   5 2.78   7 2.78   7 2.78   9 2.80  12 2.80
                            11 2.80   4 2.82   2 2.82   3 2.82
   9  0.833  0.333  0.539-  11 2.78  11 2.78  12 2.78  12 2.78  10 2.78  10 2.78   5 2.80   8 2.80
                             6 2.80  14 2.83  13 2.83  15 2.83
  10  0.333  0.333  0.539-  12 2.78  11 2.78  12 2.78  11 2.78   9 2.78   9 2.78   6 2.80   7 2.80
                             5 2.80  15 2.83  16 2.83  14 2.83
  11  0.833  0.833  0.539-   9 2.78   9 2.78  10 2.78  10 2.78  12 2.78  12 2.78   6 2.80   7 2.80
                             8 2.80  13 2.83  14 2.83  16 2.83
  12  0.333  0.833  0.539-  10 2.78   9 2.78  10 2.78   9 2.78  11 2.78  11 2.78   5 2.80   8 2.80
                             7 2.80  16 2.83  15 2.83  13 2.83
  13  0.000  0.000  0.615-  14 2.78  14 2.78  15 2.78  15 2.78  16 2.78  16 2.78  11 2.83   9 2.83
                            12 2.83
  14  0.000  0.500  0.615-  13 2.78  13 2.78  16 2.78  16 2.78  15 2.78  15 2.78   9 2.83  11 2.83
                            10 2.83
  15  0.500  0.500  0.615-  16 2.78  13 2.78  16 2.78  13 2.78  14 2.78  14 2.78  10 2.83  12 2.83
                             9 2.83
  16  0.500  0.000  0.615-  15 2.78  14 2.78  15 2.78  14 2.78  13 2.78  13 2.78  12 2.83  10 2.83
                            11 2.83
 
  LATTYP: Found a hexagonal cell.
 ALAT       =     5.5578593001
 C/A-ratio  =     5.5429542221
  
  Lattice vectors:
  
 A1 = (   2.7789296501,  -4.8132473446,   0.0000000000)
 A2 = (  -5.5578593001,   0.0000000000,   0.0000000000)
 A3 = (   0.0000000000,   0.0000000000, -30.8069596737)


Analysis of symmetry for initial positions (statically):
=====================================================================
 Subroutine PRICEL returns:
 Original cell was already a primitive cell.
 

 Routine SETGRP: Setting up the symmetry group for a 
 hexagonal supercell.


 Subroutine GETGRP returns: Found  2 space group operations
 (whereof  2 operations were pure point group operations)
 out of a pool of 24 trial point group operations.


The static configuration has the point symmetry C_1h.


Analysis of symmetry for dynamics (positions and initial velocities):
=====================================================================
 Subroutine PRICEL returns:
 Original cell was already a primitive cell.
 

 Routine SETGRP: Setting up the symmetry group for a 
 hexagonal supercell.


 Subroutine GETGRP returns: Found  2 space group operations
 (whereof  2 operations were pure point group operations)
 out of a pool of 24 trial point group operations.


The dynamic configuration has the point symmetry C_1h.


Analysis of constrained symmetry for selective dynamics:
=====================================================================
 Subroutine PRICEL returns:
 Original cell was already a primitive cell.
 

 Routine SETGRP: Setting up the symmetry group for a 
 hexagonal supercell.


 Subroutine GETGRP returns: Found  2 space group operations
 (whereof  2 operations were pure point group operations)
 out of a pool of 24 trial point group operations.


The constrained configuration has the point symmetry C_1h.


 Subroutine INISYM returns: Found  2 space group operations
 (whereof  2 operations are pure point group operations),
 and found     1 'primitive' translations

 
 
 KPOINTS: KPOINTS created by Atomic Simulation Env

Automatic generation of k-mesh.
Space group operators:
 irot       det(A)        alpha          n_x          n_y          n_z        tau_x        tau_y        tau_z
    1     1.000000     0.000001     1.000000     0.000000     0.000000     0.000000     0.000000     0.000000
    2    -1.000000   180.000000     1.000000     0.000000     0.000000     0.000000     0.000000     0.000000
 
 Subroutine IBZKPT returns following result:
 ===========================================
 
 Found     52 irreducible k-points:
 
 Following reciprocal coordinates:
            Coordinates               Weight
  0.062500  0.062500  0.000000     32.000000
  0.000000  0.062500  0.000000     16.000000
  0.187500  0.062500  0.000000     32.000000
  0.125000  0.187500  0.000000     32.000000
 -0.062500  0.125000  0.000000     32.000000
  0.312500  0.062500  0.000000     32.000000
  0.250000  0.312500  0.000000     32.000000
 -0.062500  0.250000  0.000000     32.000000
  0.437500  0.062500  0.000000     32.000000
  0.375000  0.437500  0.000000     32.000000
 -0.062500  0.375000  0.000000     32.000000
 -0.437500  0.062500  0.000000     32.000000
  0.500000 -0.437500  0.000000     32.000000
 -0.062500  0.500000  0.000000     32.000000
 -0.312500  0.062500  0.000000     32.000000
 -0.375000 -0.312500  0.000000     32.000000
 -0.062500 -0.375000  0.000000     32.000000
 -0.187500  0.062500  0.000000     32.000000
 -0.250000 -0.187500  0.000000     32.000000
 -0.062500 -0.250000  0.000000     32.000000
 -0.062500  0.062500  0.000000     32.000000
 -0.125000 -0.062500  0.000000     16.000000
  0.187500  0.187500  0.000000     32.000000
  0.000000  0.187500  0.000000     16.000000
  0.312500  0.187500  0.000000     32.000000
  0.125000  0.312500  0.000000     32.000000
 -0.187500  0.125000  0.000000     32.000000
  0.437500  0.187500  0.000000     32.000000
  0.250000  0.437500  0.000000     32.000000
 -0.187500  0.250000  0.000000     32.000000
 -0.437500  0.187500  0.000000     32.000000
  0.375000 -0.437500  0.000000     32.000000
 -0.187500  0.375000  0.000000     32.000000
 -0.312500  0.187500  0.000000     32.000000
  0.500000 -0.312500  0.000000     32.000000
 -0.187500  0.500000  0.000000     32.000000
 -0.187500  0.187500  0.000000     32.000000
 -0.375000 -0.187500  0.000000     16.000000
  0.312500  0.312500  0.000000     32.000000
  0.000000  0.312500  0.000000     16.000000
  0.437500  0.312500  0.000000     32.000000
  0.125000  0.437500  0.000000     32.000000
 -0.312500  0.125000  0.000000     32.000000
 -0.437500  0.312500  0.000000     32.000000
  0.250000 -0.437500  0.000000     32.000000
 -0.312500  0.250000  0.000000     32.000000
 -0.312500  0.312500  0.000000     32.000000
  0.375000 -0.312500  0.000000     16.000000
  0.437500  0.437500  0.000000     32.000000
  0.000000  0.437500  0.000000     16.000000
 -0.437500  0.437500  0.000000     32.000000
  0.125000 -0.437500  0.000000     16.000000
 
 Following cartesian coordinates:
            Coordinates               Weight
  0.011245  0.006492  0.000000     32.000000
  0.000000  0.012985  0.000000     16.000000
  0.033736 -0.006492  0.000000     32.000000
  0.022491  0.025970  0.000000     32.000000
 -0.011245  0.032462  0.000000     32.000000
  0.056227 -0.019477  0.000000     32.000000
  0.044981  0.038955  0.000000     32.000000
 -0.011245  0.058432  0.000000     32.000000
  0.078717 -0.032462  0.000000     32.000000
  0.067472  0.051940  0.000000     32.000000
 -0.011245  0.084402  0.000000     32.000000
 -0.078717  0.058432  0.000000     32.000000
  0.089963 -0.142835  0.000000     32.000000
 -0.011245  0.110372  0.000000     32.000000
 -0.056227  0.045447  0.000000     32.000000
 -0.067472 -0.025970  0.000000     32.000000
 -0.011245 -0.071417  0.000000     32.000000
 -0.033736  0.032462  0.000000     32.000000
 -0.044981 -0.012985  0.000000     32.000000
 -0.011245 -0.045447  0.000000     32.000000
 -0.011245  0.019477  0.000000     32.000000
 -0.022491  0.000000  0.000000     16.000000
  0.033736  0.019477  0.000000     32.000000
  0.000000  0.038955  0.000000     16.000000
  0.056227  0.006492  0.000000     32.000000
  0.022491  0.051940  0.000000     32.000000
 -0.033736  0.045447  0.000000     32.000000
  0.078717 -0.006492  0.000000     32.000000
  0.044981  0.064925  0.000000     32.000000
 -0.033736  0.071417  0.000000     32.000000
 -0.078717  0.084402  0.000000     32.000000
  0.067472 -0.129850  0.000000     32.000000
 -0.033736  0.097387  0.000000     32.000000
 -0.056227  0.071417  0.000000     32.000000
  0.089963 -0.116865  0.000000     32.000000
 -0.033736  0.123357  0.000000     32.000000
 -0.033736  0.058432  0.000000     32.000000
 -0.067472  0.000000  0.000000     16.000000
  0.056227  0.032462  0.000000     32.000000
  0.000000  0.064925  0.000000     16.000000
  0.078717  0.019477  0.000000     32.000000
  0.022491  0.077910  0.000000     32.000000
 -0.056227  0.058432  0.000000     32.000000
 -0.078717  0.110372  0.000000     32.000000
  0.044981 -0.116865  0.000000     32.000000
 -0.056227  0.084402  0.000000     32.000000
 -0.056227  0.097387  0.000000     32.000000
  0.067472 -0.103880  0.000000     16.000000
  0.078717  0.045447  0.000000     32.000000
  0.000000  0.090895  0.000000     16.000000
 -0.078717  0.136342  0.000000     32.000000
  0.022491 -0.103880  0.000000     16.000000
 


--------------------------------------------------------------------------------------------------------




 Dimension of arrays:
   k-points           NKPTS =     52   k-points in BZ     NKDIM =     52   number of bands    NBANDS=     96
   number of dos      NEDOS =    301   number of ions     NIONS =     16
   non local maximal  LDIM  =      6   non local SUM 2l+1 LMDIM =     18
   total plane-waves  NPLWV = 112896
   max r-space proj   IRMAX =      1   max aug-charges    IRDMAX=  10104
   dimension x,y,z NGX =    28 NGY =   28 NGZ =  144
   dimension x,y,z NGXF=    56 NGYF=   56 NGZF=  288
   support grid    NGXF=    56 NGYF=   56 NGZF=  288
   ions per type =               1  14   1
   NGX,Y,Z   is equivalent  to a cutoff of   8.38,  8.38,  7.77 a.u.
   NGXF,Y,Z  is equivalent  to a cutoff of  16.75, 16.75, 15.54 a.u.

 SYSTEM =  unknown system                          
 POSCAR =  Ir Pt Au                                

 Startparameter for this run:
   NWRITE =      2    write-flag & timer
   PREC   = normal    normal or accurate (medium, high low for compatibility)
   ISTART =      0    job   : 0-new  1-cont  2-samecut
   ICHARG =      2    charge: 1-file 2-atom 10-const
   ISPIN  =      1    spin polarized calculation?
   LNONCOLLINEAR =      F non collinear calculations
   LSORBIT =      F    spin-orbit coupling
   INIWAV =      1    electr: 0-lowe 1-rand  2-diag
   LASPH  =      F    aspherical Exc in radial PAW
   METAGGA=      F    non-selfconsistent MetaGGA calc.

 Electronic Relaxation 1
   ENCUT  =  350.0 eV  25.72 Ry    5.07 a.u.   8.48  8.48 46.99*2*pi/ulx,y,z
   ENINI  =  350.0     initial cutoff
   ENAUG  =  359.0 eV  augmentation charge cutoff
   NELM   =     60;   NELMIN=  2; NELMDL= -5     # of ELM steps 
   EDIFF  = 0.1E-04   stopping-criterion for ELM
   LREAL  =      F    real-space projection
   NLSPLINE    = F    spline interpolate recip. space projectors
   LCOMPAT=      F    compatible to vasp.4.4
   GGA_COMPAT  = T    GGA compatible to vasp.4.4-vasp.4.6
   LMAXPAW     = -100 max onsite density
   LMAXMIX     =    2 max onsite mixed and CHGCAR
   VOSKOWN=      0    Vosko Wilk Nusair interpolation
   ROPT   =    0.00000   0.00000   0.00000
 Ionic relaxation
   EDIFFG = -.5E-01   stopping-criterion for IOM
   NSW    =      0    number of steps for IOM
   NBLOCK =      1;   KBLOCK =      1    inner block; outer block 
   IBRION =     -1    ionic relax: 0-MD 1-quasi-New 2-CG
   NFREE  =      1    steps in history (QN), initial steepest desc. (CG)
   ISIF   =      2    stress and relaxation
   IWAVPR =     10    prediction:  0-non 1-charg 2-wave 3-comb
   ISYM   =      2    0-nonsym 1-usesym 2-fastsym
   LCORR  =      T    Harris-Foulkes like correction to forces

   POTIM  = 0.5000    time-step for ionic-motion
   TEIN   =    0.0    initial temperature
   TEBEG  =    0.0;   TEEND  =   0.0 temperature during run
   SMASS  =  -3.00    Nose mass-parameter (am)
   estimated Nose-frequenzy (Omega)   =  0.10E-29 period in steps =****** mass=  -0.706E-27a.u.
   SCALEE = 1.0000    scale energy and forces
   NPACO  =    256;   APACO  = 16.0  distance and # of slots for P.C.
   PSTRESS=    0.0 pullay stress

  Mass of Ions in am
   POMASS = 192.22195.08196.97
  Ionic Valenz
   ZVAL   =   9.00 10.00 11.00
  Atomic Wigner-Seitz radii
   RWIGS  =  -1.00 -1.00 -1.00
  virtual crystal weights 
   VCA    =   1.00  1.00  1.00
   NELECT =     160.0000    total number of electrons
   NUPDOWN=      -1.0000    fix difference up-down

 DOS related values:
   EMIN   =  10.00;   EMAX   =-10.00  energy-range for DOS
   EFERMI =   0.00
   ISMEAR =     1;   SIGMA  =   0.20  broadening in eV -4-tet -1-fermi 0-gaus

 Electronic relaxation 2 (details)
   IALGO  =     38    algorithm
   LDIAG  =      T    sub-space diagonalisation (order eigenvalues)
   LSUBROT=      F    optimize rotation matrix (better conditioning)
   TURBO    =      0    0=normal 1=particle mesh
   IRESTART =      0    0=no restart 2=restart with 2 vectors
   NREBOOT  =      0    no. of reboots
   NMIN     =      0    reboot dimension
   EREF     =   0.00    reference energy to select bands
   IMIX   =      4    mixing-type and parameters
     AMIX     =   0.40;   BMIX     =  1.00
     AMIX_MAG =   1.60;   BMIX_MAG =  1.00
     AMIN     =   0.10
     WC   =   100.;   INIMIX=   1;  MIXPRE=   1;  MAXMIX= -45

 Intra band minimization:
   WEIMIN = 0.0000     energy-eigenvalue tresh-hold
   EBREAK =  0.26E-07  absolut break condition
   DEPER  =   0.30     relativ break condition  

   TIME   =   0.40     timestep for ELM

  volume/ion in A,a.u.               =      51.51       347.59
  Fermi-wavevector in a.u.,A,eV,Ry     =   0.947945  1.791357 12.226201  0.898600
  Thomas-Fermi vector in A             =   2.076087
 
 Write flags
   LWAVE        =      F    write WAVECAR
   LDOWNSAMPLE  =      F    k-point downsampling of WAVECAR
   LCHARG       =      F    write CHGCAR
   LVTOT        =      F    write LOCPOT, total local potential
   LVHAR        =      F    write LOCPOT, Hartree potential only
   LELF         =      F    write electronic localiz. function (ELF)
   LORBIT       =      0    0 simple, 1 ext, 2 COOP (PROOUT), +10 PAW based schemes


 Dipole corrections
   LMONO  =      F    monopole corrections only (constant potential shift)
   LDIPOL =      F    correct potential (dipole corrections)
   IDIPOL =      3    1-x, 2-y, 3-z, 4-all directions 
   EPSILON=  1.0000000 bulk dielectric constant

 Exchange correlation treatment:
   GGA     =    PE    GGA type
   LEXCH   =     8    internal setting for exchange type
   VOSKOWN=      0    Vosko Wilk Nusair interpolation
   LHFCALC =     F    Hartree Fock is set to
   LHFONE  =     F    Hartree Fock one center treatment
   AEXX    =    0.0000 exact exchange contribution

 Linear response parameters
   LEPSILON=     F    determine dielectric tensor
   LRPA    =     F    only Hartree local field effects (RPA)
   LNABLA  =     F    use nabla operator in PAW spheres
   LVEL    =     F    velocity operator in full k-point grid
   LINTERFAST=   F  fast interpolation
   KINTER  =     0    interpolate to denser k-point grid
   CSHIFT  =0.1000    complex shift for real part using Kramers Kronig
   OMEGAMAX=  -1.0    maximum frequency
   DEG_THRESHOLD= 0.2000000E-02 threshold for treating states as degnerate
   RTIME   =   -0.100 relaxation time in fs
  (WPLASMAI=    0.000 imaginary part of plasma frequency in eV, 0.658/RTIME)
   DFIELD  = 0.0000000 0.0000000 0.0000000 field for delta impulse in time
 
 Orbital magnetization related:
   ORBITALMAG=     F  switch on orbital magnetization
   LCHIMAG   =     F  perturbation theory with respect to B field
   DQ        =  0.001000  dq finite difference perturbation B field
   LLRAUG    =     F  two centre corrections for induced B field



--------------------------------------------------------------------------------------------------------


 Static calculation
 charge density and potential will be updated during run
 non-spin polarized calculation
 Variant of blocked Davidson
 Davidson routine will perform the subspace rotation
 perform sub-space diagonalisation
    after iterative eigenvector-optimisation
 modified Broyden-mixing scheme, WC =      100.0
 initial mixing is a Kerker type mixing with AMIX =  0.4000 and BMIX =      1.0000
 Hartree-type preconditioning will be used
 using additional bands           16
 reciprocal scheme for non local part
 use partial core corrections
 calculate Harris-corrections to forces 
   (improved forces if not selfconsistent)
 use gradient corrections 
 use of overlap-Matrix (Vanderbilt PP)
 Methfessel and Paxton  Order N= 1 SIGMA  =   0.20


--------------------------------------------------------------------------------------------------------


  energy-cutoff  :      350.00
  volume of cell :      824.13
      direct lattice vectors                 reciprocal lattice vectors
     5.557859300  0.000000000  0.000000000     0.179925390 -0.103879972  0.000000000
     2.778929650  4.813247345  0.000000000     0.000000000  0.207759944  0.000000000
     0.000000000  0.000000000 30.806959674     0.000000000  0.000000000  0.032460198

  length of vectors
     5.557859300  5.557859300 30.806959674     0.207759944  0.207759944  0.032460198


 
 k-points in units of 2pi/SCALE and weight: KPOINTS created by Atomic Simulation Env
   0.01124534  0.00649250  0.00000000       0.021
   0.00000000  0.01298500  0.00000000       0.010
   0.03373601 -0.00649250  0.00000000       0.021
   0.02249067  0.02596999  0.00000000       0.021
  -0.01124534  0.03246249  0.00000000       0.021
   0.05622668 -0.01947749  0.00000000       0.021
   0.04498135  0.03895499  0.00000000       0.021
  -0.01124534  0.05843248  0.00000000       0.021
   0.07871736 -0.03246249  0.00000000       0.021
   0.06747202  0.05193999  0.00000000       0.021
  -0.01124534  0.08440248  0.00000000       0.021
  -0.07871736  0.05843248  0.00000000       0.021
   0.08996269 -0.14283496  0.00000000       0.021
  -0.01124534  0.11037247  0.00000000       0.021
  -0.05622668  0.04544749  0.00000000       0.021
  -0.06747202 -0.02596999  0.00000000       0.021
  -0.01124534 -0.07141748  0.00000000       0.021
  -0.03373601  0.03246249  0.00000000       0.021
  -0.04498135 -0.01298500  0.00000000       0.021
  -0.01124534 -0.04544749  0.00000000       0.021
  -0.01124534  0.01947749  0.00000000       0.021
  -0.02249067  0.00000000  0.00000000       0.010
   0.03373601  0.01947749  0.00000000       0.021
   0.00000000  0.03895499  0.00000000       0.010
   0.05622668  0.00649250  0.00000000       0.021
   0.02249067  0.05193999  0.00000000       0.021
  -0.03373601  0.04544749  0.00000000       0.021
   0.07871736 -0.00649250  0.00000000       0.021
   0.04498135  0.06492498  0.00000000       0.021
  -0.03373601  0.07141748  0.00000000       0.021
  -0.07871736  0.08440248  0.00000000       0.021
   0.06747202 -0.12984997  0.00000000       0.021
  -0.03373601  0.09738747  0.00000000       0.021
  -0.05622668  0.07141748  0.00000000       0.021
   0.08996269 -0.11686497  0.00000000       0.021
  -0.03373601  0.12335747  0.00000000       0.021
  -0.03373601  0.05843248  0.00000000       0.021
  -0.06747202  0.00000000  0.00000000       0.010
   0.05622668  0.03246249  0.00000000       0.021
   0.00000000  0.06492498  0.00000000       0.010
   0.07871736  0.01947749  0.00000000       0.021
   0.02249067  0.07790998  0.00000000       0.021
  -0.05622668  0.05843248  0.00000000       0.021
  -0.07871736  0.11037247  0.00000000       0.021
   0.04498135 -0.11686497  0.00000000       0.021
  -0.05622668  0.08440248  0.00000000       0.021
  -0.05622668  0.09738747  0.00000000       0.021
   0.06747202 -0.10387997  0.00000000       0.010
   0.07871736  0.04544749  0.00000000       0.021
   0.00000000  0.09089498  0.00000000       0.010
  -0.07871736  0.13634246  0.00000000       0.021
   0.02249067 -0.10387997  0.00000000       0.010
 
 k-points in reciprocal lattice and weights: KPOINTS created by Atomic Simulation Env
   0.06250000  0.06250000  0.00000000       0.021
   0.00000000  0.06250000  0.00000000       0.010
   0.18750000  0.06250000  0.00000000       0.021
   0.12500000  0.18750000  0.00000000       0.021
  -0.06250000  0.12500000  0.00000000       0.021
   0.31250000  0.06250000  0.00000000       0.021
   0.25000000  0.31250000  0.00000000       0.021
  -0.06250000  0.25000000  0.00000000       0.021
   0.43750000  0.06250000  0.00000000       0.021
   0.37500000  0.43750000  0.00000000       0.021
  -0.06250000  0.37500000  0.00000000       0.021
  -0.43750000  0.06250000  0.00000000       0.021
   0.50000000 -0.43750000  0.00000000       0.021
  -0.06250000  0.50000000  0.00000000       0.021
  -0.31250000  0.06250000  0.00000000       0.021
  -0.37500000 -0.31250000  0.00000000       0.021
  -0.06250000 -0.37500000  0.00000000       0.021
  -0.18750000  0.06250000  0.00000000       0.021
  -0.25000000 -0.18750000  0.00000000       0.021
  -0.06250000 -0.25000000  0.00000000       0.021
  -0.06250000  0.06250000  0.00000000       0.021
  -0.12500000 -0.06250000  0.00000000       0.010
   0.18750000  0.18750000  0.00000000       0.021
   0.00000000  0.18750000  0.00000000       0.010
   0.31250000  0.18750000  0.00000000       0.021
   0.12500000  0.31250000  0.00000000       0.021
  -0.18750000  0.12500000  0.00000000       0.021
   0.43750000  0.18750000  0.00000000       0.021
   0.25000000  0.43750000  0.00000000       0.021
  -0.18750000  0.25000000  0.00000000       0.021
  -0.43750000  0.18750000  0.00000000       0.021
   0.37500000 -0.43750000  0.00000000       0.021
  -0.18750000  0.37500000  0.00000000       0.021
  -0.31250000  0.18750000  0.00000000       0.021
   0.50000000 -0.31250000  0.00000000       0.021
  -0.18750000  0.50000000  0.00000000       0.021
  -0.18750000  0.18750000  0.00000000       0.021
  -0.37500000 -0.18750000  0.00000000       0.010
   0.31250000  0.31250000  0.00000000       0.021
   0.00000000  0.31250000  0.00000000       0.010
   0.43750000  0.31250000  0.00000000       0.021
   0.12500000  0.43750000  0.00000000       0.021
  -0.31250000  0.12500000  0.00000000       0.021
  -0.43750000  0.31250000  0.00000000       0.021
   0.25000000 -0.43750000  0.00000000       0.021
  -0.31250000  0.25000000  0.00000000       0.021
  -0.31250000  0.31250000  0.00000000       0.021
   0.37500000 -0.31250000  0.00000000       0.010
   0.43750000  0.43750000  0.00000000       0.021
   0.00000000  0.43750000  0.00000000       0.010
  -0.43750000  0.43750000  0.00000000       0.021
   0.12500000 -0.43750000  0.00000000       0.010
 
 position of ions in fractional coordinates (direct lattice) 
   0.00000000  0.00000000  0.38952237
   0.50000000  0.00000000  0.38952237
   0.00000000  0.50000000  0.38952237
   0.50000000  0.50000000  0.38952237
   0.16666667  0.16666667  0.46468540
   0.66666667  0.16666667  0.46468540
   0.16666667  0.66666667  0.46468540
   0.66666667  0.66666667  0.46468540
   0.83333333  0.33333333  0.53920296
   0.33333333  0.33333333  0.53920296
   0.83333333  0.83333333  0.53920296
   0.33333333  0.83333333  0.53920296
   0.00000000  0.00000000  0.61486043
   0.00000000  0.50000000  0.61486043
   0.50000000  0.50000000  0.61486043
   0.50000000  0.00000000  0.61486043
 
 position of ions in cartesian coordinates  (Angst):
   0.00000000  0.00000000 12.00000000
   2.77892965  0.00000000 12.00000000
   1.38946483  2.40662367 12.00000000
   4.16839448  2.40662367 12.00000000
   1.38946483  0.80220789 14.31554441
   4.16839448  0.80220789 14.31554441
   2.77892965  3.20883156 14.31554441
   5.55785930  3.20883156 14.31554441
   5.55785930  1.60441578 16.61120399
   2.77892965  1.60441578 16.61120399
   6.94732413  4.01103945 16.61120399
   4.16839448  4.01103945 16.61120399
   0.00000000  0.00000000 18.94198048
   1.38946483  2.40662367 18.94198048
   4.16839448  2.40662367 18.94198048
   2.77892965  0.00000000 18.94198048
 


--------------------------------------------------------------------------------------------------------


 k-point  1 :   0.0625 0.0625 0.0000  plane waves:   12325
 k-point  2 :   0.0000 0.0625 0.0000  plane waves:   12325
 k-point  3 :   0.1875 0.0625 0.0000  plane waves:   12294
 k-point  4 :   0.1250 0.1875 0.0000  plane waves:   12294
 k-point  5 :  -0.0625 0.1250 0.0000  plane waves:   12294
 k-point  6 :   0.3125 0.0625 0.0000  plane waves:   12263
 k-point  7 :   0.2500 0.3125 0.0000  plane waves:   12263
 k-point  8 :  -0.0625 0.2500 0.0000  plane waves:   12263
 k-point  9 :   0.4375 0.0625 0.0000  plane waves:   12221
 k-point 10 :   0.3750 0.4375 0.0000  plane waves:   12221
 k-point 11 :  -0.0625 0.3750 0.0000  plane waves:   12221
 k-point 12 :  -0.4375 0.0625 0.0000  plane waves:   12211
 k-point 13 :   0.5000-0.4375 0.0000  plane waves:   12211
 k-point 14 :  -0.0625 0.5000 0.0000  plane waves:   12211
 k-point 15 :  -0.3125 0.0625 0.0000  plane waves:   12242
 k-point 16 :  -0.3750-0.3125 0.0000  plane waves:   12242
 k-point 17 :  -0.0625-0.3750 0.0000  plane waves:   12242
 k-point 18 :  -0.1875 0.0625 0.0000  plane waves:   12280
 k-point 19 :  -0.2500-0.1875 0.0000  plane waves:   12280
 k-point 20 :  -0.0625-0.2500 0.0000  plane waves:   12280
 k-point 21 :  -0.0625 0.0625 0.0000  plane waves:   12329
 k-point 22 :  -0.1250-0.0625 0.0000  plane waves:   12329
 k-point 23 :   0.1875 0.1875 0.0000  plane waves:   12277
 k-point 24 :   0.0000 0.1875 0.0000  plane waves:   12277
 k-point 25 :   0.3125 0.1875 0.0000  plane waves:   12288
 k-point 26 :   0.1250 0.3125 0.0000  plane waves:   12288
 k-point 27 :  -0.1875 0.1250 0.0000  plane waves:   12288
 k-point 28 :   0.4375 0.1875 0.0000  plane waves:   12234
 k-point 29 :   0.2500 0.4375 0.0000  plane waves:   12234
 k-point 30 :  -0.1875 0.2500 0.0000  plane waves:   12234
 k-point 31 :  -0.4375 0.1875 0.0000  plane waves:   12216
 k-point 32 :   0.3750-0.4375 0.0000  plane waves:   12216
 k-point 33 :  -0.1875 0.3750 0.0000  plane waves:   12216
 k-point 34 :  -0.3125 0.1875 0.0000  plane waves:   12215
 k-point 35 :   0.5000-0.3125 0.0000  plane waves:   12215
 k-point 36 :  -0.1875 0.5000 0.0000  plane waves:   12215
 k-point 37 :  -0.1875 0.1875 0.0000  plane waves:   12289
 k-point 38 :  -0.3750-0.1875 0.0000  plane waves:   12289
 k-point 39 :   0.3125 0.3125 0.0000  plane waves:   12275
 k-point 40 :   0.0000 0.3125 0.0000  plane waves:   12275
 k-point 41 :   0.4375 0.3125 0.0000  plane waves:   12239
 k-point 42 :   0.1250 0.4375 0.0000  plane waves:   12239
 k-point 43 :  -0.3125 0.1250 0.0000  plane waves:   12239
 k-point 44 :  -0.4375 0.3125 0.0000  plane waves:   12235
 k-point 45 :   0.2500-0.4375 0.0000  plane waves:   12235
 k-point 46 :  -0.3125 0.2500 0.0000  plane waves:   12235
 k-point 47 :  -0.3125 0.3125 0.0000  plane waves:   12232
 k-point 48 :   0.3750-0.3125 0.0000  plane waves:   12232
 k-point 49 :   0.4375 0.4375 0.0000  plane waves:   12200
 k-point 50 :   0.0000 0.4375 0.0000  plane waves:   12200
 k-point 51 :  -0.4375 0.4375 0.0000  plane waves:   12214
 k-point 52 :   0.1250-0.4375 0.0000  plane waves:   12214

 maximum and minimum number of plane-waves per node :     12329    12200

 maximum number of plane-waves:     12329
 maximum index in each direction: 
   IXMAX=    8   IYMAX=    8   IZMAX=   46
   IXMIN=   -8   IYMIN=   -8   IZMIN=  -46


 serial   3D FFT for wavefunctions
 parallel 3D FFT for charge:
    minimum data exchange during FFTs selected (reduces bandwidth)


 total amount of memory used by VASP MPI-rank0   362189. kBytes
=======================================================================

   base      :      30000. kBytes
   nonl-proj :     280273. kBytes
   fftplans  :       2015. kBytes
   grid      :       7641. kBytes
   one-center:        248. kBytes
   wavefun   :      42012. kBytes
 
     INWAV:  cpu time    0.0000: real time    0.0000
 Broyden mixing: mesh for mixing (old mesh)
   NGX = 17   NGY = 17   NGZ = 93
  (NGX  = 56   NGY  = 56   NGZ  =288)
  gives a total of  26877 points

 initial charge density was supplied:
 charge density of overlapping atoms calculated
 number of electron     160.0000000 magnetization 
 keeping initial charge density in first step


--------------------------------------------------------------------------------------------------------


 Maximum index for augmentation-charges          824 (set IRDMAX)


--------------------------------------------------------------------------------------------------------


 First call to EWALD:  gamma=   0.189
 Maximum number of real-space cells 5x 5x 1
 Maximum number of reciprocal cells 2x 2x 8

    FEWALD:  cpu time    0.0014: real time    0.0014


--------------------------------------- Iteration      1(   1)  ---------------------------------------


    POTLOK:  cpu time    0.0192: real time    0.0252
    SETDIJ:  cpu time    0.0023: real time    0.0023
     EDDAV:  cpu time    9.0041: real time    9.0059
       DOS:  cpu time    0.0017: real time    0.0017
    --------------------------------------------
      LOOP:  cpu time    9.0274: real time    9.0350

 eigenvalue-minimisations  :  9984
 total energy-change (2. order) : 0.9777843E+03  (-0.5547474E+04)
 number of electron     160.0000000 magnetization 
 augmentation part      160.0000000 magnetization 

 Free energy of the ion-electron system (eV)
  ---------------------------------------------------
  alpha Z        PSCENC =       303.52543553
  Ewald energy   TEWEN  =     98433.56053661
  -Hartree energ DENC   =   -110505.05101069
  -exchange      EXHF   =         0.00000000
  -V(xc)+E(xc)   XCENC  =        46.26589279
  PAW double counting   =     11171.21661038   -10711.84633960
  entropy T*S    EENTRO =        -0.00318751
  eigenvalues    EBANDS =       546.42211214
  atomic energy  EATOM  =     11693.69420960
  Solvation  Ediel_sol  =         0.00000000
  ---------------------------------------------------
  free energy    TOTEN  =       977.78425924 eV

  energy without entropy =      977.78744675  energy(sigma->0) =      977.78532174


--------------------------------------------------------------------------------------------------------




--------------------------------------- Iteration      1(   2)  ---------------------------------------


     EDDAV:  cpu time   12.8739: real time   12.8783
       DOS:  cpu time    0.0017: real time    0.0017
    --------------------------------------------
      LOOP:  cpu time   12.8756: real time   12.8800

 eigenvalue-minimisations  : 14520
 total energy-change (2. order) :-0.1016150E+04  (-0.9841327E+03)
 number of electron     160.0000000 magnetization 
 augmentation part      160.0000000 magnetization 

 Free energy of the ion-electron system (eV)
  ---------------------------------------------------
  alpha Z        PSCENC =       303.52543553
  Ewald energy   TEWEN  =     98433.56053661
  -Hartree energ DENC   =   -110505.05101069
  -exchange      EXHF   =         0.00000000
  -V(xc)+E(xc)   XCENC  =        46.26589279
  PAW double counting   =     11171.21661038   -10711.84633960
  entropy T*S    EENTRO =         0.00015005
  eigenvalues    EBANDS =      -469.73104324
  atomic energy  EATOM  =     11693.69420960
  Solvation  Ediel_sol  =         0.00000000
  ---------------------------------------------------
  free energy    TOTEN  =       -38.36555858 eV

  energy without entropy =      -38.36570863  energy(sigma->0) =      -38.36560859


--------------------------------------------------------------------------------------------------------




--------------------------------------- Iteration      1(   3)  ---------------------------------------


     EDDAV:  cpu time   11.0817: real time   11.0835
       DOS:  cpu time    0.0016: real time    0.0016
    --------------------------------------------
      LOOP:  cpu time   11.0833: real time   11.0851

 eigenvalue-minimisations  : 12432
 total energy-change (2. order) :-0.5861848E+02  (-0.5669125E+02)
 number of electron     160.0000000 magnetization 
 augmentation part      160.0000000 magnetization 

 Free energy of the ion-electron system (eV)
  ---------------------------------------------------
  alpha Z        PSCENC =       303.52543553
  Ewald energy   TEWEN  =     98433.56053661
  -Hartree energ DENC   =   -110505.05101069
  -exchange      EXHF   =         0.00000000
  -V(xc)+E(xc)   XCENC  =        46.26589279
  PAW double counting   =     11171.21661038   -10711.84633960
  entropy T*S    EENTRO =        -0.02512861
  eigenvalues    EBANDS =      -528.32424541
  atomic energy  EATOM  =     11693.69420960
  Solvation  Ediel_sol  =         0.00000000
  ---------------------------------------------------
  free energy    TOTEN  =       -96.98403941 eV

  energy without entropy =      -96.95891080  energy(sigma->0) =      -96.97566321


--------------------------------------------------------------------------------------------------------




--------------------------------------- Iteration      1(   4)  ---------------------------------------


     EDDAV:  cpu time   12.5063: real time   12.5106
       DOS:  cpu time    0.0017: real time    0.0017
    --------------------------------------------
      LOOP:  cpu time   12.5081: real time   12.5124

 eigenvalue-minimisations  : 14280
 total energy-change (2. order) :-0.1272425E+01  (-0.1265491E+01)
 number of electron     160.0000000 magnetization 
 augmentation part      160.0000000 magnetization 

 Free energy of the ion-electron system (eV)
  ---------------------------------------------------
  alpha Z        PSCENC =       303.52543553
  Ewald energy   TEWEN  =     98433.56053661
  -Hartree energ DENC   =   -110505.05101069
  -exchange      EXHF   =         0.00000000
  -V(xc)+E(xc)   XCENC  =        46.26589279
  PAW double counting   =     11171.21661038   -10711.84633960
  entropy T*S    EENTRO =        -0.02601719
  eigenvalues    EBANDS =      -529.59578139
  atomic energy  EATOM  =     11693.69420960
  Solvation  Ediel_sol  =         0.00000000
  ---------------------------------------------------
  free energy    TOTEN  =       -98.25646397 eV

  energy without entropy =      -98.23044677  energy(sigma->0) =      -98.24779157


--------------------------------------------------------------------------------------------------------




--------------------------------------- Iteration      1(   5)  ---------------------------------------


     EDDAV:  cpu time   13.0947: real time   13.0964
       DOS:  cpu time    0.0017: real time    0.0017
    CHARGE:  cpu time    0.3181: real time    0.3181
    MIXING:  cpu time    0.0011: real time    0.0011
    --------------------------------------------
      LOOP:  cpu time   13.4155: real time   13.4174

 eigenvalue-minimisations  : 14952
 total energy-change (2. order) :-0.3301022E-01  (-0.3299234E-01)
 number of electron     160.0000093 magnetization 
 augmentation part       46.9813701 magnetization 

 Broyden mixing:
  rms(total) = 0.41707E+01    rms(broyden)= 0.41706E+01
  rms(prec ) = 0.41998E+01
  weight for this iteration     100.00

 Free energy of the ion-electron system (eV)
  ---------------------------------------------------
  alpha Z        PSCENC =       303.52543553
  Ewald energy   TEWEN  =     98433.56053661
  -Hartree energ DENC   =   -110505.05101069
  -exchange      EXHF   =         0.00000000
  -V(xc)+E(xc)   XCENC  =        46.26589279
  PAW double counting   =     11171.21661038   -10711.84633960
  entropy T*S    EENTRO =        -0.02599293
  eigenvalues    EBANDS =      -529.62881586
  atomic energy  EATOM  =     11693.69420960
  Solvation  Ediel_sol  =         0.00000000
  ---------------------------------------------------
  free energy    TOTEN  =       -98.28947418 eV

  energy without entropy =      -98.26348125  energy(sigma->0) =      -98.28080987


--------------------------------------------------------------------------------------------------------




--------------------------------------- Iteration      1(   6)  ---------------------------------------


    POTLOK:  cpu time    0.0175: real time    0.0197
    SETDIJ:  cpu time    0.0023: real time    0.0023
     EDDAV:  cpu time   10.5166: real time   10.5180
       DOS:  cpu time    0.0018: real time    0.0018
    CHARGE:  cpu time    0.3182: real time    0.3183
    MIXING:  cpu time    0.0007: real time    0.0008
    --------------------------------------------
      LOOP:  cpu time   10.8571: real time   10.8607

 eigenvalue-minimisations  : 11904
 total energy-change (2. order) : 0.4002060E+01  (-0.2891886E+01)
 number of electron     160.0000089 magnetization 
 augmentation part       49.5394579 magnetization 

 Broyden mixing:
  rms(total) = 0.30119E+01    rms(broyden)= 0.30118E+01
  rms(prec ) = 0.30968E+01
  weight for this iteration     100.00

 eigenvalues of (default mixing * dielectric matrix)
  average eigenvalue GAMMA=   1.3286
  1.3286

 Free energy of the ion-electron system (eV)
  ---------------------------------------------------
  alpha Z        PSCENC =       303.52543553
  Ewald energy   TEWEN  =     98433.56053661
  -Hartree energ DENC   =   -110316.33212890
  -exchange      EXHF   =         0.00000000
  -V(xc)+E(xc)   XCENC  =        42.09446689
  PAW double counting   =     12324.57330470   -11888.45704571
  entropy T*S    EENTRO =        -0.02894385
  eigenvalues    EBANDS =      -686.91724912
  atomic energy  EATOM  =     11693.69420960
  Solvation  Ediel_sol  =         0.00000000
  ---------------------------------------------------
  free energy    TOTEN  =       -94.28741424 eV

  energy without entropy =      -94.25847039  energy(sigma->0) =      -94.27776629


--------------------------------------------------------------------------------------------------------




--------------------------------------- Iteration      1(   7)  ---------------------------------------


    POTLOK:  cpu time    0.0163: real time    0.0212
    SETDIJ:  cpu time    0.0021: real time    0.0021
     EDDAV:  cpu time   10.8910: real time   10.8926
       DOS:  cpu time    0.0017: real time    0.0017
    CHARGE:  cpu time    0.3184: real time    0.3184
    MIXING:  cpu time    0.0006: real time    0.0006
    --------------------------------------------
      LOOP:  cpu time   11.2302: real time   11.2366

 eigenvalue-minimisations  : 12360
 total energy-change (2. order) :-0.2443640E+02  (-0.1720221E+02)
 number of electron     160.0000107 magnetization 
 augmentation part       48.7951634 magnetization 

 Broyden mixing:
  rms(total) = 0.44810E+01    rms(broyden)= 0.44809E+01
  rms(prec ) = 0.49594E+01
  weight for this iteration     100.00

 eigenvalues of (default mixing * dielectric matrix)
  average eigenvalue GAMMA=   1.1848
  2.1112  0.2584

 Free energy of the ion-electron system (eV)
  ---------------------------------------------------
  alpha Z        PSCENC =       303.52543553
  Ewald energy   TEWEN  =     98433.56053661
  -Hartree energ DENC   =   -110487.33848924
  -exchange      EXHF   =         0.00000000
  -V(xc)+E(xc)   XCENC  =        40.90750487
  PAW double counting   =     13226.22166699   -12800.76947955
  entropy T*S    EENTRO =         0.00411501
  eigenvalues    EBANDS =      -528.52931740
  atomic energy  EATOM  =     11693.69420960
  Solvation  Ediel_sol  =         0.00000000
  ---------------------------------------------------
  free energy    TOTEN  =      -118.72381759 eV

  energy without entropy =     -118.72793260  energy(sigma->0) =     -118.72518926


--------------------------------------------------------------------------------------------------------




--------------------------------------- Iteration      1(   8)  ---------------------------------------


    POTLOK:  cpu time    0.0162: real time    0.0162
    SETDIJ:  cpu time    0.0021: real time    0.0021
     EDDAV:  cpu time   12.8642: real time   12.8660
       DOS:  cpu time    0.0017: real time    0.0017
    CHARGE:  cpu time    0.3179: real time    0.3179
    MIXING:  cpu time    0.0006: real time    0.0006
    --------------------------------------------
      LOOP:  cpu time   13.2026: real time   13.2044

 eigenvalue-minimisations  : 14808
 total energy-change (2. order) : 0.2361279E+02  (-0.6729259E+01)
 number of electron     160.0000106 magnetization 
 augmentation part       50.4189577 magnetization 

 Broyden mixing:
  rms(total) = 0.15459E+01    rms(broyden)= 0.15458E+01
  rms(prec ) = 0.16905E+01
  weight for this iteration     100.00

 eigenvalues of (default mixing * dielectric matrix)
  average eigenvalue GAMMA=   1.0029
  2.0946  0.6016  0.3125

 Free energy of the ion-electron system (eV)
  ---------------------------------------------------
  alpha Z        PSCENC =       303.52543553
  Ewald energy   TEWEN  =     98433.56053661
  -Hartree energ DENC   =   -110322.39971015
  -exchange      EXHF   =         0.00000000
  -V(xc)+E(xc)   XCENC  =        39.90556181
  PAW double counting   =     14058.03046839   -13643.72873584
  entropy T*S    EENTRO =        -0.04007796
  eigenvalues    EBANDS =      -657.65871305
  atomic energy  EATOM  =     11693.69420960
  Solvation  Ediel_sol  =         0.00000000
  ---------------------------------------------------
  free energy    TOTEN  =       -95.11102505 eV

  energy without entropy =      -95.07094710  energy(sigma->0) =      -95.09766573


--------------------------------------------------------------------------------------------------------




--------------------------------------- Iteration      1(   9)  ---------------------------------------


    POTLOK:  cpu time    0.0170: real time    0.0182
    SETDIJ:  cpu time    0.0023: real time    0.0023
     EDDAV:  cpu time   10.3986: real time   10.4002
       DOS:  cpu time    0.0017: real time    0.0017
    CHARGE:  cpu time    0.3193: real time    0.3193
    MIXING:  cpu time    0.0007: real time    0.0007
    --------------------------------------------
      LOOP:  cpu time   10.7396: real time   10.7424

 eigenvalue-minimisations  : 11736
 total energy-change (2. order) : 0.8176248E+00  (-0.3587715E+01)
 number of electron     160.0000088 magnetization 
 augmentation part       50.3633598 magnetization 

 Broyden mixing:
  rms(total) = 0.16083E+01    rms(broyden)= 0.16081E+01
  rms(prec ) = 0.17131E+01
  weight for this iteration     100.00

 eigenvalues of (default mixing * dielectric matrix)
  average eigenvalue GAMMA=   0.8974
  2.1096  0.9172  0.2814  0.2814

 Free energy of the ion-electron system (eV)
  ---------------------------------------------------
  alpha Z        PSCENC =       303.52543553
  Ewald energy   TEWEN  =     98433.56053661
  -Hartree energ DENC   =   -110318.32099221
  -exchange      EXHF   =         0.00000000
  -V(xc)+E(xc)   XCENC  =        40.33696935
  PAW double counting   =     14190.64669653   -13775.58442551
  entropy T*S    EENTRO =        -0.02822827
  eigenvalues    EBANDS =      -662.12360183
  atomic energy  EATOM  =     11693.69420960
  Solvation  Ediel_sol  =         0.00000000
  ---------------------------------------------------
  free energy    TOTEN  =       -94.29340021 eV

  energy without entropy =      -94.26517193  energy(sigma->0) =      -94.28399078


--------------------------------------------------------------------------------------------------------




--------------------------------------- Iteration      1(  10)  ---------------------------------------


    POTLOK:  cpu time    0.0183: real time    0.0183
    SETDIJ:  cpu time    0.0023: real time    0.0023
     EDDAV:  cpu time   13.4605: real time   13.4622
       DOS:  cpu time    0.0017: real time    0.0017
    CHARGE:  cpu time    0.3175: real time    0.3176
    MIXING:  cpu time    0.0007: real time    0.0007
    --------------------------------------------
      LOOP:  cpu time   13.8011: real time   13.8028

 eigenvalue-minimisations  : 15552
 total energy-change (2. order) : 0.1018643E+01  (-0.1507980E+01)
 number of electron     160.0000094 magnetization 
 augmentation part       50.2136102 magnetization 

 Broyden mixing:
  rms(total) = 0.12252E+01    rms(broyden)= 0.12251E+01
  rms(prec ) = 0.15709E+01
  weight for this iteration     100.00

 eigenvalues of (default mixing * dielectric matrix)
  average eigenvalue GAMMA=   0.7367
  2.1258  0.9152  0.2769  0.2769  0.0884

 Free energy of the ion-electron system (eV)
  ---------------------------------------------------
  alpha Z        PSCENC =       303.52543553
  Ewald energy   TEWEN  =     98433.56053661
  -Hartree energ DENC   =   -110314.74202713
  -exchange      EXHF   =         0.00000000
  -V(xc)+E(xc)   XCENC  =        40.47241589
  PAW double counting   =     14277.27937752   -13861.99013123
  entropy T*S    EENTRO =        -0.00433227
  eigenvalues    EBANDS =      -665.07024128
  atomic energy  EATOM  =     11693.69420960
  Solvation  Ediel_sol  =         0.00000000
  ---------------------------------------------------
  free energy    TOTEN  =       -93.27475676 eV

  energy without entropy =      -93.27042449  energy(sigma->0) =      -93.27331267


--------------------------------------------------------------------------------------------------------




--------------------------------------- Iteration      1(  11)  ---------------------------------------


    POTLOK:  cpu time    0.0164: real time    0.0164
    SETDIJ:  cpu time    0.0021: real time    0.0021
     EDDAV:  cpu time   12.1312: real time   12.1327
       DOS:  cpu time    0.0019: real time    0.0019
    CHARGE:  cpu time    0.3184: real time    0.3184
    MIXING:  cpu time    0.0007: real time    0.0007
    --------------------------------------------
      LOOP:  cpu time   12.4707: real time   12.4722

 eigenvalue-minimisations  : 13968
 total energy-change (2. order) : 0.1040769E+01  (-0.7586670E+00)
 number of electron     160.0000093 magnetization 
 augmentation part       50.1623530 magnetization 

 Broyden mixing:
  rms(total) = 0.54500E+00    rms(broyden)= 0.54491E+00
  rms(prec ) = 0.60200E+00
  weight for this iteration     100.00

 eigenvalues of (default mixing * dielectric matrix)
  average eigenvalue GAMMA=   0.7342
  2.1568  0.9907  0.4596  0.4419  0.2745  0.0817

 Free energy of the ion-electron system (eV)
  ---------------------------------------------------
  alpha Z        PSCENC =       303.52543553
  Ewald energy   TEWEN  =     98433.56053661
  -Hartree energ DENC   =   -110318.86939443
  -exchange      EXHF   =         0.00000000
  -V(xc)+E(xc)   XCENC  =        40.48411882
  PAW double counting   =     14289.86032946   -13874.63113078
  entropy T*S    EENTRO =        -0.03477556
  eigenvalues    EBANDS =      -659.82331743
  atomic energy  EATOM  =     11693.69420960
  Solvation  Ediel_sol  =         0.00000000
  ---------------------------------------------------
  free energy    TOTEN  =       -92.23398818 eV

  energy without entropy =      -92.19921262  energy(sigma->0) =      -92.22239633


--------------------------------------------------------------------------------------------------------




--------------------------------------- Iteration      1(  12)  ---------------------------------------


    POTLOK:  cpu time    0.0176: real time    0.0240
    SETDIJ:  cpu time    0.0021: real time    0.0021
     EDDAV:  cpu time   10.5940: real time   10.5956
       DOS:  cpu time    0.0018: real time    0.0018
    CHARGE:  cpu time    0.3178: real time    0.3178
    MIXING:  cpu time    0.0008: real time    0.0008
    --------------------------------------------
      LOOP:  cpu time   10.9341: real time   10.9421

 eigenvalue-minimisations  : 12000
 total energy-change (2. order) : 0.4622559E-01  (-0.2863386E+00)
 number of electron     160.0000096 magnetization 
 augmentation part       50.1358315 magnetization 

 Broyden mixing:
  rms(total) = 0.41217E+00    rms(broyden)= 0.41213E+00
  rms(prec ) = 0.52239E+00
  weight for this iteration     100.00

 eigenvalues of (default mixing * dielectric matrix)
  average eigenvalue GAMMA=   0.6930
  2.1091  1.0516  0.5122  0.5122  0.2943  0.2943  0.0772

 Free energy of the ion-electron system (eV)
  ---------------------------------------------------
  alpha Z        PSCENC =       303.52543553
  Ewald energy   TEWEN  =     98433.56053661
  -Hartree energ DENC   =   -110322.06872023
  -exchange      EXHF   =         0.00000000
  -V(xc)+E(xc)   XCENC  =        40.49699745
  PAW double counting   =     14306.15563980   -13891.28613022
  entropy T*S    EENTRO =        -0.05241982
  eigenvalues    EBANDS =      -656.21331132
  atomic energy  EATOM  =     11693.69420960
  Solvation  Ediel_sol  =         0.00000000
  ---------------------------------------------------
  free energy    TOTEN  =       -92.18776260 eV

  energy without entropy =      -92.13534278  energy(sigma->0) =      -92.17028933


--------------------------------------------------------------------------------------------------------




--------------------------------------- Iteration      1(  13)  ---------------------------------------


    POTLOK:  cpu time    0.0167: real time    0.0167
    SETDIJ:  cpu time    0.0023: real time    0.0023
     EDDAV:  cpu time   12.1555: real time   12.1570
       DOS:  cpu time    0.0018: real time    0.0018
    CHARGE:  cpu time    0.3184: real time    0.3184
    MIXING:  cpu time    0.0009: real time    0.0009
    --------------------------------------------
      LOOP:  cpu time   12.4955: real time   12.4971

 eigenvalue-minimisations  : 13944
 total energy-change (2. order) : 0.1243484E+00  (-0.1280984E+00)
 number of electron     160.0000096 magnetization 
 augmentation part       50.1229057 magnetization 

 Broyden mixing:
  rms(total) = 0.24587E+00    rms(broyden)= 0.24583E+00
  rms(prec ) = 0.25851E+00
  weight for this iteration     100.00

 eigenvalues of (default mixing * dielectric matrix)
  average eigenvalue GAMMA=   0.7278
  2.0678  1.1192  1.1192  0.5506  0.3451  0.3086  0.2352  0.0771

 Free energy of the ion-electron system (eV)
  ---------------------------------------------------
  alpha Z        PSCENC =       303.52543553
  Ewald energy   TEWEN  =     98433.56053661
  -Hartree energ DENC   =   -110323.02920266
  -exchange      EXHF   =         0.00000000
  -V(xc)+E(xc)   XCENC  =        40.50740036
  PAW double counting   =     14282.96155010   -13868.00250073
  entropy T*S    EENTRO =        -0.03498454
  eigenvalues    EBANDS =      -655.24585843
  atomic energy  EATOM  =     11693.69420960
  Solvation  Ediel_sol  =         0.00000000
  ---------------------------------------------------
  free energy    TOTEN  =       -92.06341416 eV

  energy without entropy =      -92.02842962  energy(sigma->0) =      -92.05175264


--------------------------------------------------------------------------------------------------------




--------------------------------------- Iteration      1(  14)  ---------------------------------------


    POTLOK:  cpu time    0.0173: real time    0.0183
    SETDIJ:  cpu time    0.0023: real time    0.0023
     EDDAV:  cpu time   13.8629: real time   13.8646
       DOS:  cpu time    0.0016: real time    0.0016
    CHARGE:  cpu time    0.3185: real time    0.3185
    MIXING:  cpu time    0.0009: real time    0.0009
    --------------------------------------------
      LOOP:  cpu time   14.2035: real time   14.2062

 eigenvalue-minimisations  : 16104
 total energy-change (2. order) : 0.1072929E-02  (-0.3740138E-01)
 number of electron     160.0000095 magnetization 
 augmentation part       50.1130491 magnetization 

 Broyden mixing:
  rms(total) = 0.20977E+00    rms(broyden)= 0.20976E+00
  rms(prec ) = 0.25571E+00
  weight for this iteration     100.00

 eigenvalues of (default mixing * dielectric matrix)
  average eigenvalue GAMMA=   0.7674
  1.8589  1.5725  1.5725  0.5534  0.3733  0.3733  0.2879  0.2375  0.0772

 Free energy of the ion-electron system (eV)
  ---------------------------------------------------
  alpha Z        PSCENC =       303.52543553
  Ewald energy   TEWEN  =     98433.56053661
  -Hartree energ DENC   =   -110325.65448804
  -exchange      EXHF   =         0.00000000
  -V(xc)+E(xc)   XCENC  =        40.53485590
  PAW double counting   =     14249.62517943   -13834.64716700
  entropy T*S    EENTRO =        -0.03801899
  eigenvalues    EBANDS =      -652.66288428
  atomic energy  EATOM  =     11693.69420960
  Solvation  Ediel_sol  =         0.00000000
  ---------------------------------------------------
  free energy    TOTEN  =       -92.06234123 eV

  energy without entropy =      -92.02432224  energy(sigma->0) =      -92.04966823


--------------------------------------------------------------------------------------------------------




--------------------------------------- Iteration      1(  15)  ---------------------------------------


    POTLOK:  cpu time    0.0166: real time    0.0166
    SETDIJ:  cpu time    0.0023: real time    0.0023
     EDDAV:  cpu time   11.1360: real time   11.1373
       DOS:  cpu time    0.0018: real time    0.0018
    CHARGE:  cpu time    0.3183: real time    0.3183
    MIXING:  cpu time    0.0009: real time    0.0009
    --------------------------------------------
      LOOP:  cpu time   11.4759: real time   11.4772

 eigenvalue-minimisations  : 12624
 total energy-change (2. order) :-0.1062131E-01  (-0.9727324E-02)
 number of electron     160.0000095 magnetization 
 augmentation part       50.0986039 magnetization 

 Broyden mixing:
  rms(total) = 0.21650E+00    rms(broyden)= 0.21650E+00
  rms(prec ) = 0.29321E+00
  weight for this iteration     100.00

 eigenvalues of (default mixing * dielectric matrix)
  average eigenvalue GAMMA=   0.8234
  2.2493  2.2493  1.2286  0.6815  0.4567  0.4567  0.2993  0.2993  0.2364  0.0771

 Free energy of the ion-electron system (eV)
  ---------------------------------------------------
  alpha Z        PSCENC =       303.52543553
  Ewald energy   TEWEN  =     98433.56053661
  -Hartree energ DENC   =   -110328.67936587
  -exchange      EXHF   =         0.00000000
  -V(xc)+E(xc)   XCENC  =        40.55497045
  PAW double counting   =     14217.76956017   -13802.79580173
  entropy T*S    EENTRO =        -0.03671024
  eigenvalues    EBANDS =      -649.66579706
  atomic energy  EATOM  =     11693.69420960
  Solvation  Ediel_sol  =         0.00000000
  ---------------------------------------------------
  free energy    TOTEN  =       -92.07296254 eV

  energy without entropy =      -92.03625230  energy(sigma->0) =      -92.06072579


--------------------------------------------------------------------------------------------------------




--------------------------------------- Iteration      1(  16)  ---------------------------------------


    POTLOK:  cpu time    0.0168: real time    0.0168
    SETDIJ:  cpu time    0.0023: real time    0.0023
     EDDAV:  cpu time   10.7160: real time   10.7173
       DOS:  cpu time    0.0018: real time    0.0018
    CHARGE:  cpu time    0.3180: real time    0.3180
    MIXING:  cpu time    0.0011: real time    0.0011
    --------------------------------------------
      LOOP:  cpu time   11.0560: real time   11.0573

 eigenvalue-minimisations  : 12120
 total energy-change (2. order) : 0.3203966E-01  (-0.1722480E-01)
 number of electron     160.0000095 magnetization 
 augmentation part       50.0870270 magnetization 

 Broyden mixing:
  rms(total) = 0.93129E-01    rms(broyden)= 0.93115E-01
  rms(prec ) = 0.10734E+00
  weight for this iteration     100.00

 eigenvalues of (default mixing * dielectric matrix)
  average eigenvalue GAMMA=   0.8362
  2.4155  2.4155  1.2308  0.6558  0.6558  0.5157  0.3971  0.3003  0.3003  0.2339
  0.0771

 Free energy of the ion-electron system (eV)
  ---------------------------------------------------
  alpha Z        PSCENC =       303.52543553
  Ewald energy   TEWEN  =     98433.56053661
  -Hartree energ DENC   =   -110331.84677041
  -exchange      EXHF   =         0.00000000
  -V(xc)+E(xc)   XCENC  =        40.58156987
  PAW double counting   =     14202.24501127   -13787.31439637
  entropy T*S    EENTRO =        -0.03750772
  eigenvalues    EBANDS =      -646.44901126
  atomic energy  EATOM  =     11693.69420960
  Solvation  Ediel_sol  =         0.00000000
  ---------------------------------------------------
  free energy    TOTEN  =       -92.04092288 eV

  energy without entropy =      -92.00341516  energy(sigma->0) =      -92.02842030


--------------------------------------------------------------------------------------------------------




--------------------------------------- Iteration      1(  17)  ---------------------------------------


    POTLOK:  cpu time    0.0170: real time    0.0245
    SETDIJ:  cpu time    0.0021: real time    0.0021
     EDDAV:  cpu time   12.5028: real time   12.5044
       DOS:  cpu time    0.0018: real time    0.0018
    CHARGE:  cpu time    0.3173: real time    0.3173
    MIXING:  cpu time    0.0011: real time    0.0011
    --------------------------------------------
      LOOP:  cpu time   12.8422: real time   12.8513

 eigenvalue-minimisations  : 14424
 total energy-change (2. order) : 0.6397062E-02  (-0.4555880E-02)
 number of electron     160.0000096 magnetization 
 augmentation part       50.0830764 magnetization 

 Broyden mixing:
  rms(total) = 0.47105E-01    rms(broyden)= 0.47096E-01
  rms(prec ) = 0.50468E-01
  weight for this iteration     100.00

 eigenvalues of (default mixing * dielectric matrix)
  average eigenvalue GAMMA=   0.8257
  2.4438  2.4438  1.2526  0.7919  0.7919  0.4676  0.4676  0.3409  0.2983  0.2983
  0.2345  0.0771

 Free energy of the ion-electron system (eV)
  ---------------------------------------------------
  alpha Z        PSCENC =       303.52543553
  Ewald energy   TEWEN  =     98433.56053661
  -Hartree energ DENC   =   -110332.94247701
  -exchange      EXHF   =         0.00000000
  -V(xc)+E(xc)   XCENC  =        40.58837976
  PAW double counting   =     14189.00105490   -13774.01061018
  entropy T*S    EENTRO =        -0.04047336
  eigenvalues    EBANDS =      -645.41058167
  atomic energy  EATOM  =     11693.69420960
  Solvation  Ediel_sol  =         0.00000000
  ---------------------------------------------------
  free energy    TOTEN  =       -92.03452582 eV

  energy without entropy =      -91.99405246  energy(sigma->0) =      -92.02103470


--------------------------------------------------------------------------------------------------------




--------------------------------------- Iteration      1(  18)  ---------------------------------------


    POTLOK:  cpu time    0.0169: real time    0.0169
    SETDIJ:  cpu time    0.0023: real time    0.0023
     EDDAV:  cpu time   10.3636: real time   10.3650
       DOS:  cpu time    0.0018: real time    0.0018
    CHARGE:  cpu time    0.3184: real time    0.3184
    MIXING:  cpu time    0.0013: real time    0.0013
    --------------------------------------------
      LOOP:  cpu time   10.7042: real time   10.7057

 eigenvalue-minimisations  : 11712
 total energy-change (2. order) : 0.9089930E-03  (-0.7689270E-03)
 number of electron     160.0000096 magnetization 
 augmentation part       50.0845911 magnetization 

 Broyden mixing:
  rms(total) = 0.19597E-01    rms(broyden)= 0.19591E-01
  rms(prec ) = 0.21703E-01
  weight for this iteration     100.00

 eigenvalues of (default mixing * dielectric matrix)
  average eigenvalue GAMMA=   0.8254
  2.3420  2.3420  1.3470  0.8772  0.8772  0.6728  0.5984  0.4196  0.3462  0.2982
  0.2982  0.2342  0.0771

 Free energy of the ion-electron system (eV)
  ---------------------------------------------------
  alpha Z        PSCENC =       303.52543553
  Ewald energy   TEWEN  =     98433.56053661
  -Hartree energ DENC   =   -110333.28605747
  -exchange      EXHF   =         0.00000000
  -V(xc)+E(xc)   XCENC  =        40.59233399
  PAW double counting   =     14185.61287895   -13770.59648868
  entropy T*S    EENTRO =        -0.04056527
  eigenvalues    EBANDS =      -645.09590008
  atomic energy  EATOM  =     11693.69420960
  Solvation  Ediel_sol  =         0.00000000
  ---------------------------------------------------
  free energy    TOTEN  =       -92.03361682 eV

[...]
     80      -0.8363      1.17393
     81      -0.7724      0.64326
     82      -0.7280      0.33116
     83      -0.6659      0.04853
     84      -0.4942     -0.04547
     85      -0.4770     -0.03769
     86      -0.3512     -0.00494
     87       1.1544     -0.00000
     88       1.1723     -0.00000
     89       1.2667     -0.00000
     90       1.7523     -0.00000
     91       1.7685     -0.00000
     92       1.7814     -0.00000
     93       2.8436     -0.00000
     94       2.8654     -0.00000
     95       3.2692     -0.00000
     96       4.3539     -0.00000

 k-point    51 :      -0.4375    0.4375    0.0000
  band No.  band energies     occupation 
      1      -8.3175      2.00000
      2      -8.2894      2.00000
      3      -7.3192      2.00000
      4      -7.2555      2.00000
      5      -6.8442      2.00000
      6      -6.5847      2.00000
      7      -6.5207      2.00000
      8      -6.4625      2.00000
      9      -6.3662      2.00000
     10      -6.2727      2.00000
     11      -6.2171      2.00000
     12      -6.1562      2.00000
     13      -6.1517      2.00000
     14      -5.9679      2.00000
     15      -5.8033      2.00000
     16      -5.7194      2.00000
     17      -5.7045      2.00000
     18      -5.6795      2.00000
     19      -5.5425      2.00000
     20      -5.4817      2.00000
     21      -5.3525      2.00000
     22      -5.3096      2.00000
     23      -5.2735      2.00000
     24      -5.2154      2.00000
     25      -5.1685      2.00000
     26      -5.0940      2.00000
     27      -5.0793      2.00000
     28      -5.0409      2.00000
     29      -4.7790      2.00000
     30      -4.7292      2.00000
     31      -4.6739      2.00000
     32      -4.6110      2.00000
     33      -4.5651      2.00000
     34      -4.4735      2.00000
     35      -4.4401      2.00000
     36      -4.3250      2.00000
     37      -4.2287      2.00000
     38      -4.1527      2.00000
     39      -4.1217      2.00000
     40      -4.0934      2.00000
     41      -4.0508      2.00000
     42      -3.9329      2.00000
     43      -3.8317      2.00000
     44      -3.7330      2.00000
     45      -3.7151      2.00000
     46      -3.6836      2.00000
     47      -3.6423      2.00000
     48      -3.6112      2.00000
     49      -3.5737      2.00000
     50      -3.4653      2.00000
     51      -3.3749      2.00000
     52      -3.3131      2.00000
     53      -3.1767      2.00000
     54      -2.9942      2.00000
     55      -2.9434      2.00000
     56      -2.8849      2.00000
     57      -2.8661      2.00000
     58      -2.8275      2.00000
     59      -2.6951      2.00000
     60      -2.6028      2.00000
     61      -2.5372      2.00000
     62      -2.4850      2.00000
     63      -2.4032      2.00000
     64      -2.3481      2.00000
     65      -2.2273      2.00000
     66      -2.1913      2.00000
     67      -2.1289      2.00000
     68      -2.0395      2.00000
     69      -1.9720      2.00000
     70      -1.9096      2.00000
     71      -1.8768      2.00000
     72      -1.8034      2.00000
     73      -1.7069      2.00000
     74      -1.5726      2.00000
     75      -1.4604      2.00005
     76      -1.3591      2.00083
     77      -1.2932      2.00377
     78      -1.0908      2.06525
     79      -0.9744      1.97676
     80      -0.9030      1.66683
     81      -0.8673      1.42147
     82      -0.7675      0.60531
     83      -0.6909      0.13910
     84      -0.5935     -0.06627
     85      -0.4300     -0.02003
     86      -0.4094     -0.01442
     87       0.2031     -0.00000
     88       0.4917     -0.00000
     89       1.4432     -0.00000
     90       1.5133     -0.00000
     91       1.6068     -0.00000
     92       2.3510     -0.00000
     93       3.1425     -0.00000
     94       3.4320     -0.00000
     95       3.9311     -0.00000
     96       3.9897     -0.00000

 k-point    52 :       0.1250   -0.4375    0.0000
  band No.  band energies     occupation 
      1      -8.3141      2.00000
      2      -8.2925      2.00000
      3      -7.3162      2.00000
      4      -7.2594      2.00000
      5      -6.8434      2.00000
      6      -6.5824      2.00000
      7      -6.5165      2.00000
      8      -6.4601      2.00000
      9      -6.3692      2.00000
     10      -6.2732      2.00000
     11      -6.2326      2.00000
     12      -6.1534      2.00000
     13      -6.1433      2.00000
     14      -5.9706      2.00000
     15      -5.8007      2.00000
     16      -5.7162      2.00000
     17      -5.7057      2.00000
     18      -5.6814      2.00000
     19      -5.5514      2.00000
     20      -5.4806      2.00000
     21      -5.3502      2.00000
     22      -5.3041      2.00000
     23      -5.2833      2.00000
     24      -5.2060      2.00000
     25      -5.1726      2.00000
     26      -5.0928      2.00000
     27      -5.0804      2.00000
     28      -5.0258      2.00000
     29      -4.8122      2.00000
     30      -4.7241      2.00000
     31      -4.6707      2.00000
     32      -4.6101      2.00000
     33      -4.5611      2.00000
     34      -4.4665      2.00000
     35      -4.4332      2.00000
     36      -4.3182      2.00000
     37      -4.2460      2.00000
     38      -4.1538      2.00000
     39      -4.1141      2.00000
     40      -4.0983      2.00000
     41      -4.0347      2.00000
     42      -3.9368      2.00000
     43      -3.8364      2.00000
     44      -3.7511      2.00000
     45      -3.7069      2.00000
     46      -3.6751      2.00000
     47      -3.6414      2.00000
     48      -3.6056      2.00000
     49      -3.5816      2.00000
     50      -3.4935      2.00000
     51      -3.3709      2.00000
     52      -3.2893      2.00000
     53      -3.1440      2.00000
     54      -2.9944      2.00000
     55      -2.9506      2.00000
     56      -2.9035      2.00000
     57      -2.8878      2.00000
     58      -2.8256      2.00000
     59      -2.7009      2.00000
     60      -2.5966      2.00000
     61      -2.5324      2.00000
     62      -2.4849      2.00000
     63      -2.4110      2.00000
     64      -2.3287      2.00000
     65      -2.2210      2.00000
     66      -2.1763      2.00000
     67      -2.1172      2.00000
     68      -2.0590      2.00000
     69      -1.9918      2.00000
     70      -1.9248      2.00000
     71      -1.8732      2.00000
     72      -1.8037      2.00000
     73      -1.7118      2.00000
     74      -1.6065      2.00000
     75      -1.4450      2.00008
     76      -1.2803      2.00492
     77      -1.2620      2.00706
     78      -1.1635      2.03375
     79      -0.9931      2.01825
     80      -0.8994      1.64481
     81      -0.8573      1.34407
     82      -0.7890      0.77679
     83      -0.6457     -0.00343
     84      -0.6143     -0.05160
     85      -0.4501     -0.02678
     86      -0.3872     -0.00983
     87       0.2036     -0.00000
     88       0.4914     -0.00000
     89       1.4375     -0.00000
     90       1.5467     -0.00000
     91       1.5780     -0.00000
     92       2.3465     -0.00000
     93       3.1588     -0.00000
     94       3.4185     -0.00000
     95       3.9385     -0.00000
     96       3.9842     -0.00000


--------------------------------------------------------------------------------------------------------


 soft charge-density along one line, spin component           1
         0         1         2         3         4         5         6         7         8         9
 total charge-density along one line
 
 pseudopotential strength for first ion, spin component:           1
 -8.314   0.000  -0.000  -0.011  -0.000  -8.523   0.000  -0.000
  0.000  -8.242   0.001  -0.000  -0.015   0.000  -8.453   0.001
 -0.000   0.001  -8.240  -0.000   0.000  -0.000   0.001  -8.451
 -0.011  -0.000  -0.000  -8.241  -0.000  -0.011  -0.000  -0.000
 -0.000  -0.015   0.000  -0.000  -8.314  -0.000  -0.015   0.000
 -8.523   0.000  -0.000  -0.011  -0.000  -8.719   0.000  -0.000
  0.000  -8.453   0.001  -0.000  -0.015   0.000  -8.649   0.001
 -0.000   0.001  -8.451  -0.000   0.000  -0.000   0.001  -8.647
 -0.011  -0.000  -0.000  -8.452  -0.000  -0.011  -0.000  -0.000
 -0.000  -0.015   0.000  -0.000  -8.523  -0.000  -0.015   0.000
 -0.000  -0.001  -0.020   0.000  -0.000  -0.000  -0.001  -0.020
 -0.000  -0.002  -0.031   0.000  -0.000  -0.000  -0.002  -0.031
 -0.000  -0.007   0.000  -0.000   0.001  -0.000  -0.007   0.000
 -0.000  -0.000  -0.014  -0.000  -0.000  -0.000  -0.000  -0.013
  0.000  -0.000  -0.000  -0.007  -0.000   0.000  -0.000  -0.000
 -0.000  -0.006   0.000  -0.000   0.001  -0.000  -0.006   0.000
 -0.000  -0.000  -0.015  -0.000  -0.000  -0.000  -0.000  -0.015
  0.000  -0.000  -0.000  -0.006  -0.000   0.000  -0.000  -0.000
 total augmentation occupancy for first ion, spin component:           1
  2.648   0.000   0.000  -0.320   0.000  -1.872   0.000   0.000   0.104   0.000   0.000   0.000   0.000   0.000  -0.041   0.000
  0.000   3.351   0.007   0.000  -0.359   0.000  -1.854  -0.005   0.000   0.135   0.011  -0.000  -0.238   0.000   0.000   0.008
  0.000   0.007   3.626   0.000   0.008   0.000  -0.005  -2.346   0.000  -0.005   0.662  -0.060   0.002  -0.237   0.000   0.000
 -0.320   0.000   0.000   3.362   0.000   0.110   0.000   0.000  -1.859   0.000   0.000   0.000   0.000   0.000  -0.235   0.000
  0.000  -0.359   0.008   0.000   2.640   0.000   0.129  -0.004   0.000  -1.865   0.004   0.001  -0.041  -0.001   0.000   0.003
 -1.872   0.000   0.000   0.110   0.000   2.531   0.000   0.000   0.039   0.000   0.000   0.000   0.000   0.000   0.043   0.000
  0.000  -1.854  -0.005   0.000   0.129   0.000   1.950   0.004   0.000   0.021  -0.006  -0.001   0.231  -0.000   0.000  -0.016
  0.000  -0.005  -2.346   0.000  -0.004   0.000   0.004   2.621   0.000   0.003  -0.696   0.088  -0.002   0.327   0.000   0.000
  0.104   0.000   0.000  -1.859   0.000   0.039   0.000   0.000   1.952   0.000   0.000   0.000   0.000   0.000   0.229   0.000
  0.000   0.135  -0.005   0.000  -1.865   0.000   0.021   0.003   0.000   2.526  -0.002  -0.000   0.043   0.000   0.000  -0.003
  0.000   0.011   0.662   0.000   0.004   0.000  -0.006  -0.696   0.000  -0.002   2.089  -0.341   0.000   0.173   0.000  -0.000
  0.000  -0.000  -0.060   0.000   0.001   0.000  -0.001   0.088   0.000  -0.000  -0.341   0.073   0.000  -0.050   0.000   0.000
  0.000  -0.238   0.002   0.000  -0.041   0.000   0.231  -0.002   0.000   0.043   0.000   0.000   0.265  -0.001   0.000  -0.014
  0.000   0.000  -0.237   0.000  -0.001   0.000  -0.000   0.327   0.000   0.000   0.173  -0.050  -0.001   0.146   0.000   0.000
 -0.041   0.000   0.000  -0.235   0.000   0.043   0.000   0.000   0.229   0.000   0.000   0.000   0.000   0.000   0.265   0.000
  0.000   0.008   0.000   0.000   0.003   0.000  -0.016   0.000   0.000  -0.003  -0.000   0.000  -0.014   0.000   0.000   0.001
  0.000  -0.000  -0.003   0.000   0.000   0.000  -0.000  -0.019   0.000  -0.000  -0.018   0.004   0.000  -0.009   0.000  -0.000
  0.003   0.000   0.000   0.008   0.000  -0.003   0.000   0.000  -0.016   0.000   0.000   0.000   0.000   0.000  -0.014   0.000


------------------------ aborting loop because EDIFF is reached ----------------------------------------



 DIPCOR: dipole corrections for dipol
 direction  3 min pos   288,
 dipolmoment           0.000000      0.000000     -0.019608 electrons x Angstroem
 Tr[quadrupol]      -958.898499

 energy correction for charged system         0.000000 eV
 dipol+quadrupol energy correction            0.000042 eV
 added-field ion interaction          0.000000 eV  (added to PSCEN)

 
  *************** adding dipol energy to TOTEN NOW **************** 
    CHARGE:  cpu time    0.3176: real time    0.3176
    FORLOC:  cpu time    0.0023: real time    0.0023
    FORNL :  cpu time    4.5712: real time    4.5716
    STRESS:  cpu time    7.6018: real time    7.6025
    FORCOR:  cpu time    0.0195: real time    0.0200
    FORHAR:  cpu time    0.0055: real time    0.0055
    MIXING:  cpu time    0.0016: real time    0.0016
    OFIELD:  cpu time    0.0000: real time    0.0000

  FORCE on cell =-STRESS in cart. coord.  units (eV):
  Direction    XX          YY          ZZ          XY          YZ          ZX
  --------------------------------------------------------------------------------------
  Alpha Z   303.52544   303.52544   303.52544
  Ewald  107325.73808107325.75016************     0.00000    -0.00000     0.00000
  Hartree109639.48923109639.45581************    -0.00000     0.07611     0.00000
  E(xc)    -709.69728  -709.68849  -714.43428     0.00004    -0.01622    -0.00000
  Local  ************************222308.93024     0.00119    -0.35158    -0.00005
  n-local    59.19007    59.19054    42.20432     3.97887    -0.03201    -0.49813
  augment   834.53146   834.45733   862.15649    -0.00078     0.12199     0.00000
  Kinetic  2282.31810  2282.15861  2353.04899     2.77945     0.25323    -0.56752
  Fock        0.00000     0.00000     0.00000     0.00000     0.00000     0.00000
  -------------------------------------------------------------------------------------
  Total     -11.21729   -11.26697    -0.44633     0.00000     0.05152     0.00000
  in kB     -21.80741   -21.90400    -0.86771     0.00000     0.10015     0.00000
  external pressure =      -14.86 kB  Pullay stress =        0.00 kB


 VOLUME and BASIS-vectors are now :
 -----------------------------------------------------------------------------
  energy-cutoff  :      350.00
  volume of cell :      824.13
      direct lattice vectors                 reciprocal lattice vectors
     5.557859300  0.000000000  0.000000000     0.179925390 -0.103879972  0.000000000
     2.778929650  4.813247345  0.000000000     0.000000000  0.207759944  0.000000000
     0.000000000  0.000000000 30.806959674     0.000000000  0.000000000  0.032460198

  length of vectors
     5.557859300  5.557859300 30.806959674     0.207759944  0.207759944  0.032460198


 FORCES acting on ions
    electron-ion (+dipol)            ewald-force                    non-local-force                 convergence-correction
 -----------------------------------------------------------------------------------------------
   -.276E-06 0.205E-01 0.257E+04   -.872E-12 -.468E-12 -.256E+04   0.000E+00 0.242E-01 -.153E+00   -.542E-09 0.912E-03 -.101E+00
   0.638E-06 -.297E-01 0.285E+04   -.950E-12 -.565E-12 -.285E+04   0.000E+00 0.524E-01 -.732E+00   0.362E-09 -.433E-02 -.113E+00
   -.541E-01 0.553E-02 0.285E+04   -.945E-12 -.586E-12 -.285E+04   0.523E-01 -.453E-01 -.754E+00   -.480E-02 0.162E-02 -.115E+00
   0.541E-01 0.553E-02 0.285E+04   -.945E-12 -.586E-12 -.285E+04   -.523E-01 -.453E-01 -.754E+00   0.480E-02 0.162E-02 -.115E+00
   0.496E+01 0.257E+01 0.100E+04   -.513E+01 -.268E+01 -.100E+04   0.259E-01 0.279E-01 -.268E+00   0.127E-02 0.170E-02 -.673E-01
   -.496E+01 0.257E+01 0.100E+04   0.513E+01 -.268E+01 -.100E+04   -.259E-01 0.279E-01 -.268E+00   -.127E-02 0.170E-02 -.673E-01
   0.116E-05 -.543E+01 0.100E+04   0.323E-11 0.564E+01 -.100E+04   0.000E+00 -.458E-01 -.166E+00   -.131E-07 -.244E-02 -.685E-01
   0.118E-05 0.292E+00 0.997E+03   0.271E-11 -.279E+00 -.996E+03   0.867E-18 -.969E-02 -.308E+00   -.618E-08 -.992E-03 -.708E-01
   -.965E-06 0.293E+00 -.902E+03   -.312E-11 -.285E+00 0.902E+03   -.867E-18 -.190E-01 0.326E+00   -.103E-07 0.373E-02 0.536E-01
   -.114E-05 -.540E+01 -.898E+03   -.266E-11 0.553E+01 0.897E+03   -.173E-17 0.273E-01 0.507E+00   -.186E-07 -.352E-02 0.594E-01
   -.493E+01 0.255E+01 -.897E+03   0.504E+01 -.263E+01 0.897E+03   0.316E-01 -.159E-02 0.391E+00   -.633E-02 -.112E-03 0.582E-01
   0.493E+01 0.255E+01 -.897E+03   -.504E+01 -.263E+01 0.897E+03   -.316E-01 -.159E-02 0.391E+00   0.633E-02 -.112E-03 0.582E-01
   -.857E-06 -.540E-01 -.281E+04   0.948E-12 0.553E-12 0.281E+04   0.000E+00 0.669E-01 0.994E+00   0.184E-08 0.307E-03 0.615E-01
   0.562E-01 0.161E-01 -.281E+04   0.966E-12 0.541E-12 0.281E+04   -.345E-01 -.316E-01 0.995E+00   -.572E-02 0.307E-02 0.662E-01
   -.562E-01 0.161E-01 -.281E+04   0.948E-12 0.514E-12 0.281E+04   0.345E-01 -.316E-01 0.995E+00   0.572E-02 0.307E-02 0.662E-01
   -.850E-06 0.958E-02 -.309E+04   0.997E-12 0.601E-12 0.309E+04   -.867E-18 0.163E-01 0.345E+00   0.329E-09 -.727E-02 0.759E-01
 -----------------------------------------------------------------------------------------------
   -.883E-06 -.105E-01 -.132E+01   0.157E-13 0.195E-13 -.273E-11   0.607E-17 0.114E-01 0.154E+01   -.232E-07 -.104E-02 -.219E+00
 
 
 POSITION                                       TOTAL-FORCE (eV/Angst)
 -----------------------------------------------------------------------------------
      0.00000      0.00000     12.00000        -0.000000      0.045648      1.070978
      2.77893      0.00000     12.00000        -0.000000      0.018385     -0.152905
      1.38946      2.40662     12.00000        -0.006605     -0.038149     -0.168435
      4.16839      2.40662     12.00000         0.006605     -0.038149     -0.168435
      1.38946      0.80221     14.31554        -0.143973     -0.080139     -0.223055
      4.16839      0.80221     14.31554         0.143973     -0.080139     -0.223055
      2.77893      3.20883     14.31554         0.000000      0.168537     -0.493723
      5.55786      3.20883     14.31554        -0.000000      0.001682      0.116852
      5.55786      1.60442     16.61120        -0.000000     -0.007484      0.153564
      2.77893      1.60442     16.61120         0.000000      0.157053     -0.320300
      6.94732      4.01104     16.61120         0.136855     -0.077139     -0.106175
      4.16839      4.01104     16.61120        -0.136855     -0.077139     -0.106175
      0.00000      0.00000     18.94198        -0.000000      0.013242     -0.142659
      1.38946      2.40662     18.94198         0.015908     -0.012434     -0.148098
      4.16839      2.40662     18.94198        -0.015908     -0.012434     -0.148098
      2.77893      0.00000     18.94198        -0.000000      0.018659      1.059721
 -----------------------------------------------------------------------------------
    total drift:                               -0.000001     -0.000138     -0.002235


--------------------------------------------------------------------------------------------------------



  FREE ENERGIE OF THE ION-ELECTRON SYSTEM (eV)
  ---------------------------------------------------
  free  energy   TOTEN  =       -92.03333145 eV

  energy  without entropy=      -91.99315785  energy(sigma->0) =      -92.01994025
 


--------------------------------------------------------------------------------------------------------


    POTLOK:  cpu time    0.0200: real time    0.0201


--------------------------------------------------------------------------------------------------------


     LOOP+:  cpu time  278.3248: real time  278.4161
    4ORBIT:  cpu time    0.0000: real time    0.0000

 total amount of memory used by VASP MPI-rank0   362189. kBytes
=======================================================================

   base      :      30000. kBytes
   nonl-proj :     280273. kBytes
   fftplans  :       2015. kBytes
   grid      :       7641. kBytes
   one-center:        248. kBytes
   wavefun   :      42012. kBytes
 
  
  
 General timing and accounting informations for this job:
 ========================================================
  
                  Total CPU time used (sec):      283.713
                            User time (sec):      282.714
                          System time (sec):        0.999
                         Elapsed time (sec):      283.938
  
                   Maximum memory used (kb):      403584.
                   Average memory used (kb):           0.
  
                          Minor page faults:        72908
                          Major page faults:            0
                 Voluntary context switches:          719
