  17  17   0   0
  0.4847811E+02  0.5557859E-09  0.5557859E-09  0.3080696E-08  0.5000000E-15
  1.000000000000000E-004
  CAR 
 unknown system                          
      6.53584201    -12.06086929  301     -0.69393189      1.00000000
    -12.061  0.0000E+00  0.0000E+00
    -11.999  0.0000E+00  0.0000E+00
    -11.937  0.0000E+00  0.0000E+00
    -11.875  0.0000E+00  0.0000E+00
    -11.813  0.0000E+00  0.0000E+00
    -11.751  0.0000E+00  0.0000E+00
    -11.689 -0.3851E-28 -0.2387E-29
    -11.627 -0.5214E-26 -0.3256E-27
    -11.565 -0.5831E-24 -0.3647E-25
    -11.503 -0.5372E-22 -0.3366E-23
    -11.441 -0.4075E-20 -0.2560E-21
    -11.379 -0.2546E-18 -0.1604E-19
    -11.317 -0.1309E-16 -0.8277E-18
    -11.255 -0.5542E-15 -0.3518E-16
    -11.193 -0.1869E-13 -0.1193E-14
    -11.131 -0.5339E-12 -0.3429E-13
    -11.069 -0.1252E-10 -0.8102E-12
    -11.007 -0.2409E-09 -0.1575E-10
    -10.945 -0.3805E-08 -0.2516E-09
    -10.883 -0.4922E-07 -0.3303E-08
    -10.821 -0.5210E-06 -0.3560E-07
    -10.759 -0.4502E-05 -0.3147E-06
    -10.697 -0.3167E-04 -0.2278E-05
    -10.635 -0.1807E-03 -0.1348E-04
    -10.573 -0.8304E-03 -0.6495E-04
    -10.511 -0.3044E-02 -0.2537E-03
    -10.449 -0.8743E-02 -0.7956E-03
    -10.387 -0.1895E-01 -0.1971E-02
    -10.325 -0.2809E-01 -0.3712E-02
    -10.263 -0.1695E-01 -0.4763E-02
    -10.201  0.4423E-01 -0.2021E-02
    -10.139  0.1745E+00  0.8795E-02
    -10.077  0.3594E+00  0.3107E-01
    -10.015  0.5576E+00  0.6564E-01
     -9.953  0.7319E+00  0.1110E+00
     -9.891  0.8617E+00  0.1644E+00
     -9.829  0.9300E+00  0.2221E+00
     -9.767  0.9220E+00  0.2792E+00
     -9.705  0.8498E+00  0.3319E+00
     -9.643  0.7673E+00  0.3795E+00
     -9.581  0.7507E+00  0.4260E+00
     -9.519  0.8417E+00  0.4782E+00
     -9.457  0.9927E+00  0.5397E+00
     -9.395  0.1090E+01  0.6073E+00
     -9.333  0.1062E+01  0.6731E+00
     -9.271  0.9437E+00  0.7316E+00
     -9.209  0.8221E+00  0.7825E+00
     -9.147  0.7449E+00  0.8287E+00
     -9.085  0.7276E+00  0.8738E+00
     -9.023  0.8105E+00  0.9241E+00
     -8.961  0.1040E+01  0.9886E+00
     -8.899  0.1379E+01  0.1074E+01
     -8.837  0.1692E+01  0.1179E+01
     -8.775  0.1869E+01  0.1295E+01
     -8.713  0.1923E+01  0.1414E+01
     -8.651  0.1927E+01  0.1533E+01
     -8.589  0.1896E+01  0.1651E+01
     -8.527  0.1804E+01  0.1763E+01
     -8.466  0.1693E+01  0.1868E+01
     -8.404  0.1705E+01  0.1973E+01
     -8.342  0.1953E+01  0.2095E+01
     -8.280  0.2369E+01  0.2241E+01
     -8.218  0.2706E+01  0.2409E+01
     -8.156  0.2750E+01  0.2580E+01
     -8.094  0.2523E+01  0.2736E+01
     -8.032  0.2244E+01  0.2875E+01
     -7.970  0.2103E+01  0.3005E+01
     -7.908  0.2145E+01  0.3138E+01
     -7.846  0.2348E+01  0.3284E+01
     -7.784  0.2744E+01  0.3454E+01
     -7.722  0.3398E+01  0.3665E+01
     -7.660  0.4267E+01  0.3929E+01
     -7.598  0.5127E+01  0.4247E+01
     -7.536  0.5741E+01  0.4603E+01
     -7.474  0.6162E+01  0.4985E+01
     -7.412  0.6739E+01  0.5403E+01
     -7.350  0.7757E+01  0.5884E+01
     -7.288  0.9156E+01  0.6451E+01
     -7.226  0.1068E+02  0.7113E+01
     -7.164  0.1211E+02  0.7864E+01
     -7.102  0.1329E+02  0.8688E+01
     -7.040  0.1392E+02  0.9550E+01
     -6.978  0.1377E+02  0.1040E+02
     -6.916  0.1302E+02  0.1121E+02
     -6.854  0.1232E+02  0.1198E+02
     -6.792  0.1252E+02  0.1275E+02
     -6.730  0.1413E+02  0.1363E+02
     -6.668  0.1697E+02  0.1468E+02
     -6.606  0.2021E+02  0.1593E+02
     -6.544  0.2290E+02  0.1735E+02
     -6.482  0.2456E+02  0.1887E+02
     -6.420  0.2526E+02  0.2044E+02
     -6.358  0.2519E+02  0.2200E+02
     -6.296  0.2453E+02  0.2352E+02
     -6.234  0.2356E+02  0.2498E+02
     -6.172  0.2264E+02  0.2639E+02
     -6.110  0.2198E+02  0.2775E+02
     -6.048  0.2145E+02  0.2908E+02
     -5.986  0.2074E+02  0.3036E+02
     -5.924  0.1972E+02  0.3159E+02
     -5.862  0.1856E+02  0.3274E+02
     -5.800  0.1764E+02  0.3383E+02
     -5.738  0.1727E+02  0.3490E+02
     -5.676  0.1753E+02  0.3599E+02
     -5.614  0.1819E+02  0.3712E+02
     -5.552  0.1900E+02  0.3829E+02
     -5.490  0.1973E+02  0.3952E+02
     -5.428  0.2020E+02  0.4077E+02
     -5.366  0.2032E+02  0.4203E+02
     -5.304  0.2007E+02  0.4327E+02
     -5.242  0.1962E+02  0.4449E+02
     -5.180  0.1933E+02  0.4569E+02
     -5.118  0.1951E+02  0.4690E+02
     -5.056  0.2017E+02  0.4815E+02
     -4.994  0.2101E+02  0.4945E+02
     -4.932  0.2168E+02  0.5079E+02
     -4.870  0.2197E+02  0.5215E+02
     -4.808  0.2177E+02  0.5350E+02
     -4.746  0.2129E+02  0.5482E+02
     -4.684  0.2111E+02  0.5613E+02
     -4.622  0.2192E+02  0.5749E+02
     -4.560  0.2401E+02  0.5898E+02
     -4.498  0.2688E+02  0.6065E+02
     -4.436  0.2945E+02  0.6247E+02
     -4.374  0.3054E+02  0.6436E+02
     -4.312  0.2973E+02  0.6621E+02
     -4.250  0.2785E+02  0.6793E+02
     -4.188  0.2654E+02  0.6958E+02
     -4.126  0.2693E+02  0.7125E+02
     -4.064  0.2881E+02  0.7303E+02
     -4.002  0.3110E+02  0.7496E+02
     -3.940  0.3294E+02  0.7700E+02
     -3.878  0.3417E+02  0.7912E+02
     -3.816  0.3495E+02  0.8129E+02
     -3.754  0.3523E+02  0.8347E+02
     -3.692  0.3494E+02  0.8564E+02
     -3.630  0.3428E+02  0.8776E+02
     -3.568  0.3355E+02  0.8984E+02
     -3.506  0.3260E+02  0.9187E+02
     -3.444  0.3083E+02  0.9378E+02
     -3.382  0.2790E+02  0.9551E+02
     -3.320  0.2435E+02  0.9701E+02
     -3.258  0.2115E+02  0.9833E+02
     -3.196  0.1894E+02  0.9950E+02
     -3.134  0.1784E+02  0.1006E+03
     -3.072  0.1794E+02  0.1017E+03
     -3.010  0.1931E+02  0.1029E+03
     -2.948  0.2176E+02  0.1043E+03
     -2.886  0.2464E+02  0.1058E+03
     -2.825  0.2712E+02  0.1075E+03
     -2.763  0.2846E+02  0.1092E+03
     -2.701  0.2818E+02  0.1110E+03
     -2.639  0.2626E+02  0.1126E+03
     -2.577  0.2354E+02  0.1141E+03
     -2.515  0.2135E+02  0.1154E+03
     -2.453  0.2060E+02  0.1167E+03
     -2.391  0.2116E+02  0.1180E+03
     -2.329  0.2231E+02  0.1194E+03
     -2.267  0.2351E+02  0.1208E+03
     -2.205  0.2458E+02  0.1223E+03
     -2.143  0.2544E+02  0.1239E+03
     -2.081  0.2590E+02  0.1255E+03
     -2.019  0.2599E+02  0.1271E+03
     -1.957  0.2608E+02  0.1288E+03
     -1.895  0.2649E+02  0.1304E+03
     -1.833  0.2699E+02  0.1321E+03
     -1.771  0.2693E+02  0.1337E+03
     -1.709  0.2594E+02  0.1353E+03
     -1.647  0.2441E+02  0.1369E+03
     -1.585  0.2314E+02  0.1383E+03
     -1.523  0.2269E+02  0.1397E+03
     -1.461  0.2285E+02  0.1411E+03
     -1.399  0.2292E+02  0.1425E+03
     -1.337  0.2239E+02  0.1439E+03
     -1.275  0.2155E+02  0.1453E+03
     -1.213  0.2134E+02  0.1466E+03
     -1.151  0.2254E+02  0.1480E+03
     -1.089  0.2500E+02  0.1495E+03
     -1.027  0.2771E+02  0.1513E+03
     -0.965  0.2956E+02  0.1531E+03
     -0.903  0.3015E+02  0.1550E+03
     -0.841  0.2985E+02  0.1568E+03
     -0.779  0.2917E+02  0.1586E+03
     -0.717  0.2832E+02  0.1604E+03
     -0.655  0.2718E+02  0.1621E+03
     -0.593  0.2568E+02  0.1636E+03
     -0.531  0.2374E+02  0.1651E+03
     -0.469  0.2132E+02  0.1664E+03
     -0.407  0.1859E+02  0.1676E+03
     -0.345  0.1602E+02  0.1686E+03
     -0.283  0.1403E+02  0.1695E+03
     -0.221  0.1267E+02  0.1702E+03
     -0.159  0.1162E+02  0.1710E+03
     -0.097  0.1050E+02  0.1716E+03
     -0.035  0.9016E+01  0.1722E+03
      0.027  0.7159E+01  0.1726E+03
      0.089  0.5245E+01  0.1729E+03
      0.151  0.3802E+01  0.1732E+03
      0.213  0.3212E+01  0.1734E+03
      0.275  0.3432E+01  0.1736E+03
      0.337  0.4032E+01  0.1738E+03
      0.399  0.4557E+01  0.1741E+03
      0.461  0.4871E+01  0.1744E+03
      0.523  0.5152E+01  0.1747E+03
      0.585  0.5533E+01  0.1751E+03
      0.647  0.5858E+01  0.1754E+03
      0.709  0.5901E+01  0.1758E+03
      0.771  0.5704E+01  0.1762E+03
      0.833  0.5543E+01  0.1765E+03
      0.895  0.5599E+01  0.1769E+03
      0.957  0.5817E+01  0.1772E+03
      1.019  0.6039E+01  0.1776E+03
      1.081  0.6081E+01  0.1780E+03
      1.143  0.5753E+01  0.1783E+03
      1.205  0.5007E+01  0.1786E+03
      1.267  0.4099E+01  0.1789E+03
      1.329  0.3472E+01  0.1791E+03
      1.391  0.3448E+01  0.1793E+03
      1.453  0.4011E+01  0.1796E+03
      1.515  0.4840E+01  0.1799E+03
      1.577  0.5508E+01  0.1802E+03
      1.639  0.5774E+01  0.1806E+03
      1.701  0.5753E+01  0.1809E+03
      1.763  0.5769E+01  0.1813E+03
      1.825  0.5982E+01  0.1816E+03
      1.887  0.6166E+01  0.1820E+03
      1.949  0.5935E+01  0.1824E+03
      2.011  0.5169E+01  0.1827E+03
      2.073  0.4145E+01  0.1830E+03
      2.135  0.3306E+01  0.1832E+03
      2.197  0.2982E+01  0.1834E+03
      2.259  0.3284E+01  0.1836E+03
      2.321  0.4100E+01  0.1838E+03
      2.383  0.5138E+01  0.1841E+03
      2.445  0.6069E+01  0.1845E+03
      2.507  0.6672E+01  0.1849E+03
      2.569  0.6852E+01  0.1854E+03
      2.631  0.6567E+01  0.1858E+03
      2.693  0.5851E+01  0.1861E+03
      2.755  0.4916E+01  0.1864E+03
      2.816  0.4131E+01  0.1867E+03
      2.878  0.3780E+01  0.1869E+03
      2.940  0.3852E+01  0.1872E+03
      3.002  0.4105E+01  0.1874E+03
      3.064  0.4321E+01  0.1877E+03
      3.126  0.4442E+01  0.1880E+03
      3.188  0.4497E+01  0.1882E+03
      3.250  0.4476E+01  0.1885E+03
      3.312  0.4296E+01  0.1888E+03
      3.374  0.3922E+01  0.1890E+03
      3.436  0.3501E+01  0.1892E+03
      3.498  0.3294E+01  0.1894E+03
      3.560  0.3412E+01  0.1897E+03
      3.622  0.3680E+01  0.1899E+03
      3.684  0.3831E+01  0.1901E+03
      3.746  0.3774E+01  0.1904E+03
      3.808  0.3596E+01  0.1906E+03
      3.870  0.3367E+01  0.1908E+03
      3.932  0.3073E+01  0.1910E+03
      3.994  0.2739E+01  0.1911E+03
      4.056  0.2483E+01  0.1913E+03
      4.118  0.2386E+01  0.1915E+03
      4.180  0.2355E+01  0.1916E+03
      4.242  0.2183E+01  0.1917E+03
      4.304  0.1753E+01  0.1918E+03
      4.366  0.1165E+01  0.1919E+03
      4.428  0.6411E+00  0.1920E+03
      4.490  0.3276E+00  0.1920E+03
      4.552  0.2011E+00  0.1920E+03
      4.614  0.1483E+00  0.1920E+03
      4.676  0.9339E-01  0.1920E+03
      4.738  0.3458E-01  0.1920E+03
      4.800 -0.3939E-02  0.1920E+03
      4.862 -0.1564E-01  0.1920E+03
      4.924 -0.1221E-01  0.1920E+03
      4.986 -0.6070E-02  0.1920E+03
      5.048 -0.2213E-02  0.1920E+03
      5.110 -0.6218E-03  0.1920E+03
      5.172 -0.1379E-03  0.1920E+03
      5.234 -0.2445E-04  0.1920E+03
      5.296 -0.3496E-05  0.1920E+03
      5.358 -0.4054E-06  0.1920E+03
      5.420 -0.3825E-07  0.1920E+03
      5.482 -0.2945E-08  0.1920E+03
      5.544 -0.1855E-09  0.1920E+03
      5.606 -0.9565E-11  0.1920E+03
      5.668 -0.4046E-12  0.1920E+03
      5.730 -0.1388E-13  0.1920E+03
      5.792 -0.4477E-15  0.1920E+03
      5.854  0.0000E+00  0.1920E+03
      5.916  0.0000E+00  0.1920E+03
      5.978  0.0000E+00  0.1920E+03
      6.040  0.0000E+00  0.1920E+03
      6.102  0.0000E+00  0.1920E+03
      6.164  0.0000E+00  0.1920E+03
      6.226  0.0000E+00  0.1920E+03
      6.288  0.0000E+00  0.1920E+03
      6.350  0.0000E+00  0.1920E+03
      6.412  0.0000E+00  0.1920E+03
      6.474  0.0000E+00  0.1920E+03
      6.536  0.0000E+00  0.1920E+03
