  16  16   0   0
  0.5150799E+02  0.5557859E-09  0.5557859E-09  0.3080696E-08  0.5000000E-15
  1.000000000000000E-004
  CAR 
 unknown system                          
      6.50573051    -12.17329851  301     -0.79717248      1.00000000
    -12.173  0.0000E+00  0.0000E+00
    -12.111  0.0000E+00  0.0000E+00
    -12.049  0.0000E+00  0.0000E+00
    -11.987  0.0000E+00  0.0000E+00
    -11.924  0.0000E+00  0.0000E+00
    -11.862  0.0000E+00  0.0000E+00
    -11.800 -0.4384E-28 -0.2730E-29
    -11.737 -0.6034E-26 -0.3784E-27
    -11.675 -0.6845E-24 -0.4300E-25
    -11.613 -0.6386E-22 -0.4019E-23
    -11.551 -0.4898E-20 -0.3090E-21
    -11.488 -0.3088E-18 -0.1954E-19
    -11.426 -0.1600E-16 -0.1016E-17
    -11.364 -0.6813E-15 -0.4344E-16
    -11.302 -0.2310E-13 -0.1482E-14
    -11.239 -0.6602E-12 -0.4259E-13
    -11.177 -0.1549E-10 -0.1007E-11
    -11.115 -0.2977E-09 -0.1954E-10
    -11.053 -0.4686E-08 -0.3113E-09
    -10.990 -0.6032E-07 -0.4067E-08
    -10.928 -0.6340E-06 -0.4355E-07
    -10.866 -0.5430E-05 -0.3817E-06
    -10.804 -0.3779E-04 -0.2734E-05
    -10.741 -0.2127E-03 -0.1598E-04
    -10.679 -0.9619E-03 -0.7587E-04
    -10.617 -0.3458E-02 -0.2912E-03
    -10.554 -0.9692E-02 -0.8946E-03
    -10.492 -0.2032E-01 -0.2160E-02
    -10.430 -0.2837E-01 -0.3926E-02
    -10.368 -0.1260E-01 -0.4710E-02
    -10.305  0.5728E-01 -0.1144E-02
    -10.243  0.1971E+00  0.1113E-01
    -10.181  0.3874E+00  0.3525E-01
    -10.119  0.5851E+00  0.7168E-01
    -10.056  0.7547E+00  0.1187E+00
     -9.994  0.8770E+00  0.1733E+00
     -9.932  0.9342E+00  0.2314E+00
     -9.870  0.9139E+00  0.2883E+00
     -9.807  0.8348E+00  0.3403E+00
     -9.745  0.7580E+00  0.3875E+00
     -9.683  0.7592E+00  0.4348E+00
     -9.620  0.8678E+00  0.4888E+00
     -9.558  0.1018E+01  0.5522E+00
     -9.496  0.1095E+01  0.6204E+00
     -9.434  0.1044E+01  0.6854E+00
     -9.371  0.9200E+00  0.7427E+00
     -9.309  0.8081E+00  0.7930E+00
     -9.247  0.7437E+00  0.8393E+00
     -9.185  0.7360E+00  0.8851E+00
     -9.122  0.8222E+00  0.9363E+00
     -9.060  0.1038E+01  0.1001E+01
     -8.998  0.1337E+01  0.1084E+01
     -8.936  0.1600E+01  0.1184E+01
     -8.873  0.1747E+01  0.1293E+01
     -8.811  0.1808E+01  0.1405E+01
     -8.749  0.1845E+01  0.1520E+01
     -8.687  0.1856E+01  0.1636E+01
     -8.624  0.1802E+01  0.1748E+01
     -8.562  0.1719E+01  0.1855E+01
     -8.500  0.1739E+01  0.1963E+01
     -8.437  0.1966E+01  0.2086E+01
     -8.375  0.2352E+01  0.2232E+01
     -8.313  0.2680E+01  0.2399E+01
     -8.251  0.2744E+01  0.2570E+01
     -8.188  0.2544E+01  0.2728E+01
     -8.126  0.2272E+01  0.2870E+01
     -8.064  0.2102E+01  0.3000E+01
     -8.002  0.2062E+01  0.3129E+01
     -7.939  0.2169E+01  0.3264E+01
     -7.877  0.2557E+01  0.3423E+01
     -7.815  0.3349E+01  0.3632E+01
     -7.753  0.4403E+01  0.3906E+01
     -7.690  0.5330E+01  0.4238E+01
     -7.628  0.5897E+01  0.4605E+01
     -7.566  0.6310E+01  0.4998E+01
     -7.504  0.6983E+01  0.5432E+01
     -7.441  0.8106E+01  0.5937E+01
     -7.379  0.9578E+01  0.6533E+01
     -7.317  0.1120E+02  0.7231E+01
     -7.254  0.1273E+02  0.8024E+01
     -7.192  0.1380E+02  0.8883E+01
     -7.130  0.1406E+02  0.9758E+01
     -7.068  0.1352E+02  0.1060E+02
     -7.005  0.1262E+02  0.1139E+02
     -6.943  0.1213E+02  0.1214E+02
     -6.881  0.1272E+02  0.1293E+02
     -6.819  0.1456E+02  0.1384E+02
     -6.756  0.1724E+02  0.1491E+02
     -6.694  0.2000E+02  0.1616E+02
     -6.632  0.2229E+02  0.1755E+02
     -6.570  0.2387E+02  0.1903E+02
     -6.507  0.2460E+02  0.2056E+02
     -6.445  0.2441E+02  0.2208E+02
     -6.383  0.2351E+02  0.2355E+02
     -6.321  0.2253E+02  0.2495E+02
     -6.258  0.2202E+02  0.2632E+02
     -6.196  0.2185E+02  0.2768E+02
     -6.134  0.2129E+02  0.2901E+02
     -6.071  0.1983E+02  0.3024E+02
     -6.009  0.1765E+02  0.3134E+02
     -5.947  0.1554E+02  0.3231E+02
     -5.885  0.1432E+02  0.3320E+02
     -5.822  0.1435E+02  0.3409E+02
     -5.760  0.1553E+02  0.3506E+02
     -5.698  0.1737E+02  0.3614E+02
     -5.636  0.1920E+02  0.3734E+02
     -5.573  0.2039E+02  0.3861E+02
     -5.511  0.2065E+02  0.3989E+02
     -5.449  0.2014E+02  0.4114E+02
     -5.387  0.1930E+02  0.4235E+02
     -5.324  0.1869E+02  0.4351E+02
     -5.262  0.1867E+02  0.4467E+02
     -5.200  0.1921E+02  0.4587E+02
     -5.138  0.1998E+02  0.4711E+02
     -5.075  0.2059E+02  0.4839E+02
     -5.013  0.2091E+02  0.4970E+02
     -4.951  0.2105E+02  0.5101E+02
     -4.888  0.2124E+02  0.5233E+02
     -4.826  0.2169E+02  0.5368E+02
     -4.764  0.2257E+02  0.5508E+02
     -4.702  0.2396E+02  0.5658E+02
     -4.639  0.2574E+02  0.5818E+02
     -4.577  0.2743E+02  0.5989E+02
     -4.515  0.2824E+02  0.6164E+02
     -4.453  0.2769E+02  0.6337E+02
     -4.390  0.2628E+02  0.6501E+02
     -4.328  0.2539E+02  0.6659E+02
     -4.266  0.2620E+02  0.6822E+02
     -4.204  0.2862E+02  0.7000E+02
     -4.141  0.3133E+02  0.7195E+02
     -4.079  0.3291E+02  0.7400E+02
     -4.017  0.3304E+02  0.7606E+02
     -3.955  0.3246E+02  0.7808E+02
     -3.892  0.3228E+02  0.8009E+02
     -3.830  0.3299E+02  0.8214E+02
     -3.768  0.3427E+02  0.8428E+02
     -3.705  0.3526E+02  0.8647E+02
     -3.643  0.3512E+02  0.8866E+02
     -3.581  0.3337E+02  0.9074E+02
     -3.519  0.3013E+02  0.9261E+02
     -3.456  0.2608E+02  0.9424E+02
     -3.394  0.2219E+02  0.9562E+02
     -3.332  0.1921E+02  0.9681E+02
     -3.270  0.1749E+02  0.9790E+02
     -3.207  0.1699E+02  0.9896E+02
     -3.145  0.1764E+02  0.1001E+03
     -3.083  0.1941E+02  0.1013E+03
     -3.021  0.2209E+02  0.1026E+03
     -2.958  0.2498E+02  0.1042E+03
     -2.896  0.2714E+02  0.1059E+03
     -2.834  0.2790E+02  0.1076E+03
     -2.772  0.2722E+02  0.1093E+03
     -2.709  0.2558E+02  0.1109E+03
     -2.647  0.2367E+02  0.1124E+03
     -2.585  0.2221E+02  0.1138E+03
     -2.522  0.2158E+02  0.1151E+03
     -2.460  0.2169E+02  0.1165E+03
     -2.398  0.2215E+02  0.1178E+03
     -2.336  0.2268E+02  0.1193E+03
     -2.273  0.2317E+02  0.1207E+03
     -2.211  0.2374E+02  0.1222E+03
     -2.149  0.2456E+02  0.1237E+03
     -2.087  0.2561E+02  0.1253E+03
     -2.024  0.2670E+02  0.1270E+03
     -1.962  0.2770E+02  0.1287E+03
     -1.900  0.2850E+02  0.1305E+03
     -1.838  0.2875E+02  0.1323E+03
     -1.775  0.2802E+02  0.1340E+03
     -1.713  0.2630E+02  0.1356E+03
     -1.651  0.2423E+02  0.1371E+03
     -1.589  0.2241E+02  0.1385E+03
     -1.526  0.2092E+02  0.1398E+03
     -1.464  0.1975E+02  0.1411E+03
     -1.402  0.1940E+02  0.1423E+03
     -1.339  0.2061E+02  0.1436E+03
     -1.277  0.2343E+02  0.1450E+03
     -1.215  0.2687E+02  0.1467E+03
     -1.153  0.2969E+02  0.1485E+03
     -1.090  0.3138E+02  0.1505E+03
     -1.028  0.3218E+02  0.1525E+03
     -0.966  0.3255E+02  0.1545E+03
     -0.904  0.3274E+02  0.1566E+03
     -0.841  0.3260E+02  0.1586E+03
     -0.779  0.3159E+02  0.1606E+03
     -0.717  0.2931E+02  0.1624E+03
     -0.655  0.2612E+02  0.1640E+03
     -0.592  0.2294E+02  0.1654E+03
     -0.530  0.2031E+02  0.1667E+03
     -0.468  0.1786E+02  0.1678E+03
     -0.406  0.1503E+02  0.1688E+03
     -0.343  0.1194E+02  0.1695E+03
     -0.281  0.9259E+01  0.1701E+03
     -0.219  0.7430E+01  0.1705E+03
     -0.156  0.6458E+01  0.1709E+03
     -0.094  0.6142E+01  0.1713E+03
     -0.032  0.6235E+01  0.1717E+03
      0.030  0.6359E+01  0.1721E+03
      0.093  0.6114E+01  0.1725E+03
      0.155  0.5462E+01  0.1728E+03
      0.217  0.4828E+01  0.1731E+03
      0.279  0.4648E+01  0.1734E+03
      0.342  0.4851E+01  0.1737E+03
      0.404  0.4941E+01  0.1740E+03
      0.466  0.4570E+01  0.1743E+03
      0.528  0.3940E+01  0.1746E+03
      0.591  0.3605E+01  0.1748E+03
      0.653  0.3945E+01  0.1750E+03
      0.715  0.4875E+01  0.1753E+03
      0.777  0.5984E+01  0.1757E+03
      0.840  0.6810E+01  0.1761E+03
      0.902  0.7044E+01  0.1766E+03
      0.964  0.6654E+01  0.1770E+03
      1.027  0.5895E+01  0.1773E+03
      1.089  0.5118E+01  0.1777E+03
      1.151  0.4513E+01  0.1779E+03
      1.213  0.4073E+01  0.1782E+03
      1.276  0.3759E+01  0.1784E+03
      1.338  0.3627E+01  0.1787E+03
      1.400  0.3764E+01  0.1789E+03
      1.462  0.4152E+01  0.1792E+03
      1.525  0.4630E+01  0.1794E+03
      1.587  0.5065E+01  0.1798E+03
      1.649  0.5492E+01  0.1801E+03
      1.711  0.5980E+01  0.1805E+03
      1.774  0.6362E+01  0.1809E+03
      1.836  0.6274E+01  0.1813E+03
      1.898  0.5598E+01  0.1816E+03
      1.961  0.4730E+01  0.1819E+03
      2.023  0.4282E+01  0.1822E+03
      2.085  0.4509E+01  0.1824E+03
      2.147  0.5114E+01  0.1828E+03
      2.210  0.5557E+01  0.1831E+03
      2.272  0.5541E+01  0.1835E+03
      2.334  0.5219E+01  0.1838E+03
      2.396  0.4962E+01  0.1841E+03
      2.459  0.4904E+01  0.1844E+03
      2.521  0.4767E+01  0.1847E+03
      2.583  0.4228E+01  0.1850E+03
      2.645  0.3414E+01  0.1852E+03
      2.708  0.2933E+01  0.1853E+03
      2.770  0.3347E+01  0.1856E+03
      2.832  0.4627E+01  0.1858E+03
      2.894  0.6079E+01  0.1862E+03
      2.957  0.6820E+01  0.1866E+03
      3.019  0.6430E+01  0.1870E+03
      3.081  0.5225E+01  0.1874E+03
      3.144  0.3941E+01  0.1876E+03
      3.206  0.3177E+01  0.1878E+03
      3.268  0.3089E+01  0.1880E+03
      3.330  0.3450E+01  0.1882E+03
      3.393  0.3887E+01  0.1885E+03
      3.455  0.4131E+01  0.1887E+03
      3.517  0.4119E+01  0.1890E+03
      3.579  0.3897E+01  0.1892E+03
      3.642  0.3508E+01  0.1894E+03
      3.704  0.3097E+01  0.1896E+03
      3.766  0.2990E+01  0.1898E+03
      3.828  0.3424E+01  0.1900E+03
      3.891  0.4187E+01  0.1903E+03
      3.953  0.4696E+01  0.1906E+03
      4.015  0.4490E+01  0.1909E+03
      4.077  0.3612E+01  0.1911E+03
      4.140  0.2540E+01  0.1912E+03
      4.202  0.1791E+01  0.1914E+03
      4.264  0.1569E+01  0.1915E+03
      4.327  0.1726E+01  0.1916E+03
      4.389  0.1950E+01  0.1917E+03
      4.451  0.1961E+01  0.1918E+03
      4.513  0.1635E+01  0.1919E+03
      4.576  0.1065E+01  0.1920E+03
      4.638  0.4879E+00  0.1920E+03
      4.700  0.9822E-01  0.1920E+03
      4.762 -0.6438E-01  0.1920E+03
      4.825 -0.8159E-01  0.1920E+03
      4.887 -0.5009E-01  0.1920E+03
      4.949 -0.2160E-01  0.1920E+03
      5.011 -0.7111E-02  0.1920E+03
      5.074 -0.1848E-02  0.1920E+03
      5.136 -0.3849E-03  0.1920E+03
      5.198 -0.6485E-04  0.1920E+03
      5.260 -0.8887E-05  0.1920E+03
      5.323 -0.9938E-06  0.1920E+03
      5.385 -0.9090E-07  0.1920E+03
      5.447 -0.6813E-08  0.1920E+03
      5.510 -0.4189E-09  0.1920E+03
      5.572 -0.2114E-10  0.1920E+03
      5.634 -0.8771E-12  0.1920E+03
      5.696 -0.3009E-13  0.1920E+03
      5.759 -0.6687E-15  0.1920E+03
      5.821  0.0000E+00  0.1920E+03
      5.883  0.0000E+00  0.1920E+03
      5.945  0.0000E+00  0.1920E+03
      6.008  0.0000E+00  0.1920E+03
      6.070  0.0000E+00  0.1920E+03
      6.132  0.0000E+00  0.1920E+03
      6.194  0.0000E+00  0.1920E+03
      6.257  0.0000E+00  0.1920E+03
      6.319  0.0000E+00  0.1920E+03
      6.381  0.0000E+00  0.1920E+03
      6.443  0.0000E+00  0.1920E+03
      6.506  0.0000E+00  0.1920E+03
