   16   16    1    1
  0.5150799E+02  0.5557859E-09  0.5557859E-09  0.3080696E-08  0.5000000E-15
  1.000000000000000E-004
  CAR 
 unknown system                          
    160     20     96
 
  0.6250000E-01  0.6250000E-01  0.0000000E+00  0.3125000E-01
    1      -10.173299   1.000000
    2       -8.903288   1.000000
    3       -7.846264   1.000000
    4       -7.711898   1.000000
    5       -7.442849   1.000000
    6       -7.419870   1.000000
    7       -7.416092   1.000000
    8       -7.294243   1.000000
    9       -7.282165   1.000000
   10       -7.265924   1.000000
   11       -6.831474   1.000000
   12       -6.814265   1.000000
   13       -6.808715   1.000000
   14       -6.790218   1.000000
   15       -6.781190   1.000000
   16       -6.587268   1.000000
   17       -6.508700   1.000000
   18       -6.491551   1.000000
   19       -6.475491   1.000000
   20       -5.776926   1.000000
   21       -5.775360   1.000000
   22       -5.676335   1.000000
   23       -4.905627   1.000000
   24       -4.898889   1.000000
   25       -4.800004   1.000000
   26       -4.660018   1.000000
   27       -4.642005   1.000000
   28       -4.639317   1.000000
   29       -4.601145   1.000000
   30       -4.512454   1.000000
   31       -4.353804   1.000000
   32       -4.307618   1.000000
   33       -4.194871   1.000000
   34       -4.184472   1.000000
   35       -4.051582   1.000000
   36       -4.022382   1.000000
   37       -3.973189   1.000000
   38       -3.972399   1.000000
   39       -3.935853   1.000000
   40       -3.796967   1.000000
   41       -3.675255   1.000000
   42       -3.646718   1.000000
   43       -3.493067   1.000000
   44       -3.440197   1.000000
   45       -3.438252   1.000000
   46       -3.178149   1.000000
   47       -3.148093   1.000000
   48       -2.916488   1.000000
   49       -2.860399   1.000000
   50       -2.748178   1.000000
   51       -2.718851   1.000000
   52       -2.340864   1.000000
   53       -2.334601   1.000000
   54       -2.065598   1.000000
   55       -2.051428   1.000000
   56       -1.841748   1.000000
   57       -1.813827   1.000000
   58       -1.715289   1.000000
   59       -1.715056   1.000000
   60       -1.594874   1.000000
   61       -1.590486   1.000000
   62       -1.461780   1.000014
   63       -1.165857   1.012819
   64       -1.143181   1.017258
   65       -1.116419   1.023240
   66       -1.095661   1.027987
   67       -1.038058   1.035393
   68       -0.978521   1.012547
   69       -0.935951   0.957723
   70       -0.914459   0.913833
   71       -0.806353   0.538800
   72       -0.786570   0.455205
   73       -0.734802   0.249776
   74       -0.720673   0.201063
   75       -0.695538   0.125447
   76       -0.677201   0.080050
   77       -0.645184   0.020923
   78       -0.520786  -0.032412
   79       -0.503369  -0.029009
   80       -0.474842  -0.022528
   81       -0.324009  -0.002065
   82       -0.185533  -0.000067
   83       -0.091587  -0.000004
   84        0.000755  -0.000000
   85        0.046476  -0.000000
   86        0.107082  -0.000000
   87        0.389417  -0.000000
   88        0.422850  -0.000000
   89        1.216175  -0.000000
   90        1.502867  -0.000000
   91        1.631977  -0.000000
   92        1.654451  -0.000000
   93        1.784133  -0.000000
   94        1.792764  -0.000000
   95        2.598760  -0.000000
   96        2.600001  -0.000000
 
  0.1875000E+00  0.6250000E-01  0.0000000E+00  0.6250000E-01
    1       -9.969308   1.000000
    2       -8.701726   1.000000
    3       -7.642227   1.000000
    4       -7.516842   1.000000
    5       -7.425382   1.000000
    6       -7.347684   1.000000
    7       -7.229999   1.000000
    8       -7.211476   1.000000
    9       -7.162608   1.000000
   10       -7.095158   1.000000
   11       -6.741535   1.000000
   12       -6.720839   1.000000
   13       -6.706466   1.000000
   14       -6.697201   1.000000
   15       -6.640102   1.000000
   16       -6.463739   1.000000
   17       -6.412465   1.000000
   18       -6.348860   1.000000
   19       -6.284064   1.000000
   20       -5.719670   1.000000
   21       -5.710917   1.000000
   22       -5.621935   1.000000
   23       -4.947376   1.000000
   24       -4.891080   1.000000
   25       -4.837103   1.000000
   26       -4.716906   1.000000
   27       -4.654467   1.000000
   28       -4.583203   1.000000
   29       -4.563389   1.000000
   30       -4.519333   1.000000
   31       -4.469491   1.000000
   32       -4.192807   1.000000
   33       -4.159476   1.000000
   34       -4.128993   1.000000
   35       -4.086634   1.000000
   36       -4.033167   1.000000
   37       -3.997799   1.000000
   38       -3.944296   1.000000
   39       -3.896661   1.000000
   40       -3.861270   1.000000
   41       -3.758882   1.000000
   42       -3.640754   1.000000
   43       -3.602264   1.000000
   44       -3.581274   1.000000
   45       -3.495960   1.000000
   46       -3.448657   1.000000
   47       -3.310779   1.000000
   48       -3.092710   1.000000
   49       -2.956929   1.000000
   50       -2.772450   1.000000
   51       -2.685702   1.000000
   52       -2.454483   1.000000
   53       -2.405529   1.000000
   54       -2.318670   1.000000
   55       -2.117237   1.000000
   56       -2.001591   1.000000
   57       -1.925968   1.000000
   58       -1.916359   1.000000
   59       -1.824726   1.000000
   60       -1.811581   1.000000
   61       -1.770528   1.000000
   62       -1.733759   1.000000
   63       -1.612404   1.000000
   64       -1.578353   1.000000
   65       -1.506104   1.000003
   66       -1.438836   1.000028
   67       -1.208062   1.006678
   68       -1.163291   1.013283
   69       -1.104666   1.025954
   70       -1.082726   1.030714
   71       -1.043030   1.035455
   72       -1.017388   1.032687
   73       -0.970349   1.005036
   74       -0.931883   0.950298
   75       -0.844457   0.694010
   76       -0.804642   0.531582
   77       -0.772354   0.395874
   78       -0.749041   0.302733
   79       -0.697588   0.131045
   80       -0.664845   0.054240
   81       -0.528794  -0.033664
   82       -0.457722  -0.018667
   83       -0.375764  -0.005572
   84       -0.273978  -0.000679
   85       -0.165334  -0.000037
   86        0.195283  -0.000000
   87        0.285218  -0.000000
   88        0.826794  -0.000000
   89        0.856259  -0.000000
   90        1.111155  -0.000000
   91        1.299109  -0.000000
   92        1.635007  -0.000000
   93        2.155660  -0.000000
   94        2.536380  -0.000000
   95        3.026749  -0.000000
   96        3.380462  -0.000000
 
  0.3125000E+00  0.6250000E-01  0.0000000E+00  0.6250000E-01
    1       -9.515644   1.000000
    2       -8.265760   1.000000
    3       -7.524918   1.000000
    4       -7.217068   1.000000
    5       -7.106801   1.000000
    6       -7.096787   1.000000
    7       -7.085557   1.000000
    8       -6.890542   1.000000
    9       -6.862572   1.000000
   10       -6.785821   1.000000
   11       -6.659562   1.000000
   12       -6.500797   1.000000
   13       -6.477710   1.000000
   14       -6.437794   1.000000
   15       -6.326756   1.000000
   16       -6.267847   1.000000
   17       -6.119579   1.000000
   18       -6.011086   1.000000
   19       -5.912371   1.000000
   20       -5.588390   1.000000
   21       -5.564477   1.000000
   22       -5.507281   1.000000
   23       -5.080452   1.000000
   24       -5.032347   1.000000
   25       -4.938126   1.000000
   26       -4.838746   1.000000
   27       -4.781851   1.000000
   28       -4.710539   1.000000
   29       -4.518933   1.000000
   30       -4.469876   1.000000
   31       -4.417001   1.000000
   32       -4.276321   1.000000
   33       -4.239014   1.000000
   34       -4.213710   1.000000
   35       -4.118878   1.000000
   36       -4.070068   1.000000
   37       -4.018636   1.000000
   38       -3.914799   1.000000
   39       -3.898931   1.000000
   40       -3.855185   1.000000
   41       -3.800881   1.000000
   42       -3.798324   1.000000
   43       -3.768275   1.000000
   44       -3.747361   1.000000
   45       -3.633517   1.000000
   46       -3.536357   1.000000
   47       -3.439810   1.000000
   48       -3.206590   1.000000
   49       -3.048973   1.000000
   50       -2.990659   1.000000
   51       -2.882265   1.000000
   52       -2.790613   1.000000
   53       -2.700735   1.000000
   54       -2.687819   1.000000
   55       -2.576733   1.000000
   56       -2.551331   1.000000
   57       -2.500892   1.000000
   58       -2.464749   1.000000
   59       -2.395229   1.000000
   60       -2.308374   1.000000
   61       -2.154672   1.000000
   62       -2.107976   1.000000
   63       -1.999920   1.000000
   64       -1.939974   1.000000
   65       -1.863414   1.000000
   66       -1.796896   1.000000
   67       -1.698191   1.000000
   68       -1.566798   1.000000
   69       -1.553848   1.000001
   70       -1.490344   1.000005
   71       -1.463716   1.000013
   72       -1.388562   1.000119
   73       -1.254973   1.002820
   74       -1.227752   1.004730
   75       -1.140472   1.017834
   76       -1.084995   1.030259
   77       -1.044331   1.035439
   78       -0.974411   1.008932
   79       -0.865399   0.770911
   80       -0.831638   0.643460
   81       -0.791418   0.475664
   82       -0.701511   0.142047
   83       -0.583818  -0.030741
   84       -0.507914  -0.029965
   85       -0.487197  -0.025384
   86        0.322893  -0.000000
   87        0.385282  -0.000000
   88        0.557578  -0.000000
   89        0.951240  -0.000000
   90        1.725382  -0.000000
   91        1.897704  -0.000000
   92        1.933769  -0.000000
   93        2.318098  -0.000000
   94        2.678717  -0.000000
   95        3.244930  -0.000000
   96        3.925495  -0.000000
 
  0.4375000E+00  0.6250000E-01  0.0000000E+00  0.6250000E-01
    1       -8.876480   1.000000
    2       -7.891601   1.000000
    3       -7.703405   1.000000
    4       -7.128578   1.000000
    5       -6.771883   1.000000
    6       -6.756076   1.000000
    7       -6.589084   1.000000
    8       -6.548462   1.000000
    9       -6.536196   1.000000
   10       -6.528470   1.000000
   11       -6.470473   1.000000
   12       -6.222703   1.000000
   13       -6.166484   1.000000
   14       -6.059395   1.000000
   15       -6.044943   1.000000
   16       -5.970841   1.000000
   17       -5.822638   1.000000
   18       -5.674261   1.000000
   19       -5.536948   1.000000
   20       -5.423746   1.000000
   21       -5.365173   1.000000
   22       -5.336799   1.000000
   23       -5.290354   1.000000
   24       -5.167243   1.000000
   25       -5.046166   1.000000
   26       -5.010872   1.000000
   27       -4.961811   1.000000
   28       -4.752757   1.000000
   29       -4.698331   1.000000
   30       -4.659403   1.000000
   31       -4.644224   1.000000
   32       -4.503593   1.000000
   33       -4.452729   1.000000
   34       -4.396928   1.000000
   35       -4.329874   1.000000
   36       -4.201669   1.000000
   37       -4.131876   1.000000
   38       -4.072553   1.000000
   39       -3.964063   1.000000
   40       -3.878196   1.000000
   41       -3.782078   1.000000
   42       -3.757513   1.000000
   43       -3.722336   1.000000
   44       -3.669393   1.000000
   45       -3.614967   1.000000
   46       -3.594547   1.000000
   47       -3.520963   1.000000
   48       -3.476447   1.000000
   49       -3.351731   1.000000
   50       -3.321815   1.000000
   51       -3.267747   1.000000
   52       -3.229810   1.000000
   53       -3.153125   1.000000
   54       -3.009893   1.000000
   55       -2.946608   1.000000
   56       -2.933917   1.000000
   57       -2.853679   1.000000
   58       -2.762633   1.000000
   59       -2.727584   1.000000
   60       -2.516206   1.000000
   61       -2.450738   1.000000
   62       -2.358896   1.000000
   63       -2.327492   1.000000
   64       -2.253174   1.000000
   65       -2.218838   1.000000
   66       -2.125404   1.000000
   67       -2.073062   1.000000
   68       -1.975230   1.000000
   69       -1.944772   1.000000
   70       -1.869350   1.000000
   71       -1.808767   1.000000
   72       -1.770585   1.000000
   73       -1.640737   1.000000
   74       -1.473410   1.000009
   75       -1.284568   1.001527
   76       -1.241705   1.003650
   77       -1.193923   1.008423
   78       -1.114053   1.023788
   79       -0.898020   0.872416
   80       -0.831459   0.642742
   81       -0.785117   0.449089
   82       -0.749584   0.304819
   83       -0.650721   0.029367
   84       -0.516206  -0.031594
   85       -0.493835  -0.026901
   86       -0.196354  -0.000091
   87        0.698365  -0.000000
   88        1.029457  -0.000000
   89        1.087343  -0.000000
   90        1.819647  -0.000000
   91        1.975374  -0.000000
   92        2.070776  -0.000000
   93        2.491694  -0.000000
   94        3.045425  -0.000000
   95        3.589072  -0.000000
   96        4.017527  -0.000000
 
 -0.4375000E+00  0.6250000E-01  0.0000000E+00  0.6250000E-01
    1       -8.525870   1.000000
    2       -8.185979   1.000000
    3       -7.448488   1.000000
    4       -7.241631   1.000000
    5       -6.668984   1.000000
    6       -6.650288   1.000000
    7       -6.522675   1.000000
    8       -6.459284   1.000000
    9       -6.439916   1.000000
   10       -6.356840   1.000000
   11       -6.320826   1.000000
   12       -6.185644   1.000000
   13       -6.124794   1.000000
   14       -6.013170   1.000000
   15       -5.873415   1.000000
   16       -5.760245   1.000000
   17       -5.678237   1.000000
   18       -5.639198   1.000000
   19       -5.556917   1.000000
   20       -5.481292   1.000000
   21       -5.336354   1.000000
   22       -5.261981   1.000000
   23       -5.224062   1.000000
   24       -5.178372   1.000000
   25       -5.102938   1.000000
   26       -5.035531   1.000000
   27       -5.008766   1.000000
   28       -4.899795   1.000000
   29       -4.770407   1.000000
   30       -4.683739   1.000000
   31       -4.645087   1.000000
   32       -4.561662   1.000000
   33       -4.540883   1.000000
   34       -4.463650   1.000000
   35       -4.399330   1.000000
   36       -4.243231   1.000000
   37       -4.114784   1.000000
   38       -4.069431   1.000000
   39       -4.037397   1.000000
   40       -3.951719   1.000000
   41       -3.860198   1.000000
   42       -3.838088   1.000000
   43       -3.749855   1.000000
   44       -3.673218   1.000000
   45       -3.655580   1.000000
   46       -3.620022   1.000000
   47       -3.605908   1.000000
   48       -3.591268   1.000000
   49       -3.526099   1.000000
   50       -3.436381   1.000000
   51       -3.396487   1.000000
   52       -3.302229   1.000000
   53       -3.079163   1.000000
   54       -3.051715   1.000000
   55       -2.978188   1.000000
   56       -2.914518   1.000000
   57       -2.815614   1.000000
   58       -2.790614   1.000000
   59       -2.707550   1.000000
   60       -2.630753   1.000000
   61       -2.573604   1.000000
   62       -2.445721   1.000000
   63       -2.354483   1.000000
   64       -2.292309   1.000000
   65       -2.246705   1.000000
   66       -2.211501   1.000000
   67       -2.147826   1.000000
   68       -2.126700   1.000000
   69       -2.018111   1.000000
   70       -1.962846   1.000000
   71       -1.877279   1.000000
   72       -1.833223   1.000000
   73       -1.806854   1.000000
   74       -1.620487   1.000000
   75       -1.398799   1.000089
   76       -1.260583   1.002521
   77       -1.205468   1.006976
   78       -1.122471   1.021845
   79       -0.876043   0.806698
   80       -0.807932   0.545456
   81       -0.770570   0.388530
   82       -0.688133   0.106095
   83       -0.588088  -0.029222
   84       -0.517886  -0.031902
   85       -0.493106  -0.026736
   86       -0.392773  -0.007441
   87        0.725430  -0.000000
   88        1.103497  -0.000000
   89        1.354753  -0.000000
   90        1.664797  -0.000000
   91        1.834033  -0.000000
   92        2.100931  -0.000000
   93        2.524362  -0.000000
   94        3.594852  -0.000000
   95        3.639262  -0.000000
   96        4.030508  -0.000000
 
 -0.3125000E+00  0.6250000E-01  0.0000000E+00  0.6250000E-01
    1       -9.212956   1.000000
    2       -7.990058   1.000000
    3       -7.665317   1.000000
    4       -7.093348   1.000000
    5       -6.964396   1.000000
    6       -6.919982   1.000000
    7       -6.833084   1.000000
    8       -6.697906   1.000000
    9       -6.690163   1.000000
   10       -6.628170   1.000000
   11       -6.613443   1.000000
   12       -6.351319   1.000000
   13       -6.318268   1.000000
   14       -6.243007   1.000000
   15       -6.178253   1.000000
   16       -6.128536   1.000000
   17       -5.951941   1.000000
   18       -5.829424   1.000000
   19       -5.708002   1.000000
   20       -5.485622   1.000000
   21       -5.453147   1.000000
   22       -5.421729   1.000000
   23       -5.208034   1.000000
   24       -5.137218   1.000000
   25       -4.994059   1.000000
   26       -4.938238   1.000000
   27       -4.855660   1.000000
   28       -4.739405   1.000000
   29       -4.594408   1.000000
   30       -4.553135   1.000000
   31       -4.467722   1.000000
   32       -4.375754   1.000000
   33       -4.330012   1.000000
   34       -4.256917   1.000000
   35       -4.218440   1.000000
   36       -4.154929   1.000000
   37       -4.105404   1.000000
   38       -4.080691   1.000000
   39       -3.982272   1.000000
   40       -3.829412   1.000000
   41       -3.787295   1.000000
   42       -3.765224   1.000000
   43       -3.723611   1.000000
   44       -3.663092   1.000000
   45       -3.581142   1.000000
   46       -3.562696   1.000000
   47       -3.470553   1.000000
   48       -3.278771   1.000000
   49       -3.193793   1.000000
   50       -3.124974   1.000000
   51       -3.100048   1.000000
   52       -2.985437   1.000000
   53       -2.944038   1.000000
   54       -2.905655   1.000000
   55       -2.876873   1.000000
   56       -2.783078   1.000000
   57       -2.745657   1.000000
   58       -2.714957   1.000000
   59       -2.630897   1.000000
   60       -2.528849   1.000000
   61       -2.273611   1.000000
   62       -2.224714   1.000000
   63       -2.162277   1.000000
   64       -2.116281   1.000000
   65       -2.072499   1.000000
   66       -1.987110   1.000000
   67       -1.907990   1.000000
   68       -1.852010   1.000000
   69       -1.795807   1.000000
   70       -1.692238   1.000000
   71       -1.644045   1.000000
   72       -1.563219   1.000000
   73       -1.478953   1.000008
   74       -1.306887   1.000930
   75       -1.211954   1.006251
   76       -1.180802   1.010321
   77       -1.096252   1.027856
   78       -1.034123   1.035198
   79       -0.969000   1.003668
   80       -0.849442   0.713019
   81       -0.806622   0.539936
   82       -0.771148   0.390907
   83       -0.652971   0.033006
   84       -0.514031  -0.031184
   85       -0.493522  -0.026831
   86        0.038683  -0.000000
   87        0.641838  -0.000000
   88        0.714450  -0.000000
   89        1.025552  -0.000000
   90        1.790122  -0.000000
   91        2.004494  -0.000000
   92        2.296209  -0.000000
   93        2.423830  -0.000000
   94        2.496131  -0.000000
   95        3.471735  -0.000000
   96        3.987072  -0.000000
 
 -0.1875000E+00  0.6250000E-01  0.0000000E+00  0.6250000E-01
    1       -9.770898   1.000000
    2       -8.508554   1.000000
    3       -7.456489   1.000000
    4       -7.446550   1.000000
    5       -7.330643   1.000000
    6       -7.234419   1.000000
    7       -7.156500   1.000000
    8       -7.074521   1.000000
    9       -7.028273   1.000000
   10       -6.948444   1.000000
   11       -6.696430   1.000000
   12       -6.628302   1.000000
   13       -6.606900   1.000000
   14       -6.590461   1.000000
   15       -6.498779   1.000000
   16       -6.368528   1.000000
   17       -6.290058   1.000000
   18       -6.198734   1.000000
   19       -6.111437   1.000000
   20       -5.664369   1.000000
   21       -5.648256   1.000000
   22       -5.571468   1.000000
   23       -5.004606   1.000000
   24       -4.922486   1.000000
   25       -4.873438   1.000000
   26       -4.792507   1.000000
   27       -4.720317   1.000000
   28       -4.597005   1.000000
   29       -4.528648   1.000000
   30       -4.497166   1.000000
   31       -4.457326   1.000000
   32       -4.234063   1.000000
   33       -4.175681   1.000000
   34       -4.132321   1.000000
   35       -4.053869   1.000000
   36       -4.016936   1.000000
   37       -3.987170   1.000000
   38       -3.940436   1.000000
   39       -3.914283   1.000000
   40       -3.817411   1.000000
   41       -3.780456   1.000000
   42       -3.766282   1.000000
   43       -3.709053   1.000000
   44       -3.669524   1.000000
   45       -3.615304   1.000000
   46       -3.476369   1.000000
   47       -3.363765   1.000000
   48       -3.258643   1.000000
   49       -2.986834   1.000000
   50       -2.861315   1.000000
   51       -2.722794   1.000000
   52       -2.549105   1.000000
   53       -2.531519   1.000000
   54       -2.480650   1.000000
   55       -2.345036   1.000000
   56       -2.308426   1.000000
   57       -2.168013   1.000000
   58       -2.102927   1.000000
   59       -2.087446   1.000000
   60       -2.022930   1.000000
   61       -1.963018   1.000000
   62       -1.885116   1.000000
   63       -1.826808   1.000000
   64       -1.776095   1.000000
   65       -1.755758   1.000000
   66       -1.574414   1.000000
   67       -1.429184   1.000037
   68       -1.344757   1.000375
   69       -1.325778   1.000597
   70       -1.274688   1.001885
   71       -1.233852   1.004230
   72       -1.198420   1.007835
   73       -1.127904   1.020608
   74       -1.061216   1.034228
   75       -1.016826   1.032549
   76       -0.983996   1.016870
   77       -0.952614   0.983984
   78       -0.836361   0.662344
   79       -0.805108   0.533549
   80       -0.770766   0.389336
   81       -0.649531   0.027492
   82       -0.568711  -0.034289
   83       -0.499140  -0.028088
   84       -0.466145  -0.020541
   85       -0.283855  -0.000856
   86        0.045897  -0.000000
   87        0.436253  -0.000000
   88        0.689772  -0.000000
   89        0.874022  -0.000000
   90        1.375136  -0.000000
   91        1.580496  -0.000000
   92        1.787090  -0.000000
   93        2.210836  -0.000000
   94        2.910817  -0.000000
   95        3.067179  -0.000000
   96        3.639325  -0.000000
 
 -0.6250000E-01  0.6250000E-01  0.0000000E+00  0.3125000E-01
    1      -10.104695   1.000000
    2       -8.835223   1.000000
    3       -7.777147   1.000000
    4       -7.645907   1.000000
    5       -7.420488   1.000000
    6       -7.416525   1.000000
    7       -7.346238   1.000000
    8       -7.259839   1.000000
    9       -7.247745   1.000000
   10       -7.206733   1.000000
   11       -6.798789   1.000000
   12       -6.779557   1.000000
   13       -6.770708   1.000000
   14       -6.762917   1.000000
   15       -6.735118   1.000000
   16       -6.545941   1.000000
   17       -6.477462   1.000000
   18       -6.445033   1.000000
   19       -6.410444   1.000000
   20       -5.757641   1.000000
   21       -5.753487   1.000000
   22       -5.657704   1.000000
   23       -4.916636   1.000000
   24       -4.894519   1.000000
   25       -4.811468   1.000000
   26       -4.667023   1.000000
   27       -4.630722   1.000000
   28       -4.612356   1.000000
   29       -4.599104   1.000000
   30       -4.540045   1.000000
   31       -4.395409   1.000000
   32       -4.257937   1.000000
   33       -4.184811   1.000000
   34       -4.144892   1.000000
   35       -4.082023   1.000000
   36       -4.022197   1.000000
   37       -3.983123   1.000000
   38       -3.949046   1.000000
   39       -3.918610   1.000000
   40       -3.853901   1.000000
   41       -3.698360   1.000000
   42       -3.601346   1.000000
   43       -3.547531   1.000000
   44       -3.498296   1.000000
   45       -3.479860   1.000000
   46       -3.287449   1.000000
   47       -3.196621   1.000000
   48       -2.986676   1.000000
   49       -2.902722   1.000000
   50       -2.743597   1.000000
   51       -2.687673   1.000000
   52       -2.385213   1.000000
   53       -2.357921   1.000000
   54       -2.154315   1.000000
   55       -2.057155   1.000000
   56       -1.874378   1.000000
   57       -1.822398   1.000000
   58       -1.773795   1.000000
   59       -1.728293   1.000000
   60       -1.667571   1.000000
   61       -1.662736   1.000000
   62       -1.602695   1.000000
   63       -1.357302   1.000273
   64       -1.331434   1.000521
   65       -1.249106   1.003165
   66       -1.200067   1.007627
   67       -1.126998   1.020813
   68       -1.008736   1.030134
   69       -0.984029   1.016894
   70       -0.947805   0.977076
   71       -0.908447   0.899475
   72       -0.872123   0.793803
   73       -0.818889   0.591295
   74       -0.772511   0.396523
   75       -0.735364   0.251799
   76       -0.724491   0.213816
   77       -0.627876  -0.001002
   78       -0.607016  -0.019237
   79       -0.587761  -0.029347
   80       -0.558906  -0.035278
   81       -0.447086  -0.016407
   82       -0.359192  -0.004129
   83       -0.265908  -0.000560
   84       -0.151157  -0.000024
   85        0.116493  -0.000000
   86        0.151253  -0.000000
   87        0.385496  -0.000000
   88        0.828983  -0.000000
   89        0.924910  -0.000000
   90        0.951982  -0.000000
   91        1.473262  -0.000000
   92        1.535134  -0.000000
   93        2.004373  -0.000000
   94        2.260716  -0.000000
   95        2.512630  -0.000000
   96        3.226045  -0.000000
 
  0.1875000E+00  0.1875000E+00  0.0000000E+00  0.3125000E-01
    1       -9.902641   1.000000
    2       -8.636563   1.000000
    3       -7.577211   1.000000
    4       -7.462546   1.000000
    5       -7.451829   1.000000
    6       -7.231142   1.000000
    7       -7.227854   1.000000
    8       -7.208305   1.000000
    9       -7.080419   1.000000
   10       -7.063786   1.000000
   11       -6.735555   1.000000
   12       -6.692759   1.000000
   13       -6.667519   1.000000
   14       -6.667089   1.000000
   15       -6.570688   1.000000
   16       -6.442385   1.000000
   17       -6.376574   1.000000
   18       -6.266209   1.000000
   19       -6.249383   1.000000
   20       -5.703018   1.000000
   21       -5.688255   1.000000
   22       -5.604832   1.000000
   23       -4.957781   1.000000
   24       -4.906822   1.000000
   25       -4.845025   1.000000
   26       -4.750589   1.000000
   27       -4.671235   1.000000
   28       -4.568228   1.000000
   29       -4.544484   1.000000
   30       -4.511191   1.000000
   31       -4.486992   1.000000
   32       -4.208492   1.000000
   33       -4.139691   1.000000
   34       -4.116310   1.000000
   35       -4.096858   1.000000
   36       -4.016202   1.000000
   37       -4.011019   1.000000
   38       -3.956677   1.000000
   39       -3.874321   1.000000
   40       -3.825551   1.000000
   41       -3.799189   1.000000
   42       -3.688541   1.000000
   43       -3.637617   1.000000
   44       -3.620918   1.000000
   45       -3.488506   1.000000
   46       -3.458689   1.000000
   47       -3.407335   1.000000
   48       -3.118630   1.000000
   49       -2.974660   1.000000
   50       -2.808168   1.000000
   51       -2.692001   1.000000
   52       -2.474253   1.000000
   53       -2.442826   1.000000
   54       -2.382479   1.000000
   55       -2.177480   1.000000
   56       -2.093291   1.000000
   57       -2.005698   1.000000
   58       -1.999521   1.000000
   59       -1.910881   1.000000
   60       -1.898839   1.000000
   61       -1.840384   1.000000
   62       -1.751203   1.000000
   63       -1.697588   1.000000
   64       -1.697198   1.000000
   65       -1.525731   1.000002
   66       -1.439445   1.000027
   67       -1.266726   1.002225
   68       -1.263015   1.002400
   69       -1.208828   1.006593
   70       -1.124453   1.021392
   71       -1.124066   1.021480
   72       -1.071548   1.032749
   73       -1.031318   1.034974
   74       -0.991840   1.022134
   75       -0.951107   0.981877
   76       -0.892644   0.857408
   77       -0.808707   0.548717
   78       -0.790838   0.473212
   79       -0.751020   0.310361
   80       -0.695434   0.125165
   81       -0.604161  -0.021111
   82       -0.457925  -0.018712
   83       -0.433570  -0.013749
   84       -0.373746  -0.005377
   85       -0.258396  -0.000466
   86       -0.163285  -0.000035
   87        0.792816  -0.000000
   88        0.883420  -0.000000
   89        0.920727  -0.000000
   90        1.044529  -0.000000
   91        1.516109  -0.000000
   92        1.520135  -0.000000
   93        2.256987  -0.000000
   94        2.288324  -0.000000
   95        3.199146  -0.000000
   96        3.658516  -0.000000
 
  0.3125000E+00  0.1875000E+00  0.0000000E+00  0.6250000E-01
    1       -9.577464   1.000000
    2       -8.322755   1.000000
    3       -7.407370   1.000000
    4       -7.265983   1.000000
    5       -7.259131   1.000000
    6       -7.152199   1.000000
    7       -7.057714   1.000000
    8       -6.970587   1.000000
    9       -6.890653   1.000000
   10       -6.809343   1.000000
   11       -6.621485   1.000000
   12       -6.550132   1.000000
   13       -6.511679   1.000000
   14       -6.473523   1.000000
   15       -6.424725   1.000000
   16       -6.244435   1.000000
   17       -6.175891   1.000000
   18       -6.076698   1.000000
   19       -5.937098   1.000000
   20       -5.602206   1.000000