 vasp.5.4.4.18Apr17-6-g9f103f2a35 (build Apr 28 2017 10:53:45) complex          
  
 executed on             LinuxIFC date 2020.02.17  09:19:46
 running on   24 total cores
 distrk:  each k-point on   24 cores,    1 groups
 distr:  one band on NCORES_PER_BAND=   1 cores,   24 groups


--------------------------------------------------------------------------------------------------------


 INCAR:
 POTCAR:    PAW_PBE Au 04Oct2007                  
 POTCAR:    PAW_PBE Pt 04Feb2005                  
 POTCAR:    PAW_PBE Ir 06Sep2000                  

 ----------------------------------------------------------------------------- 
|                                                                             |
|           W    W    AA    RRRRR   N    N  II  N    N   GGGG   !!!           |
|           W    W   A  A   R    R  NN   N  II  NN   N  G    G  !!!           |
|           W    W  A    A  R    R  N N  N  II  N N  N  G       !!!           |
|           W WW W  AAAAAA  RRRRR   N  N N  II  N  N N  G  GGG   !            |
|           WW  WW  A    A  R   R   N   NN  II  N   NN  G    G                |
|           W    W  A    A  R    R  N    N  II  N    N   GGGG   !!!           |
|                                                                             |
|      For optimal performance we recommend to set                            |
|        NCORE= 4 - approx SQRT( number of cores)                             |
|      NCORE specifies how many cores store one orbital (NPAR=cpu/NCORE).     |
|      This setting can  greatly improve the performance of VASP for DFT.     |
|      The default,   NCORE=1            might be grossly inefficient         |
|      on modern multi-core architectures or massively parallel machines.     |
|      Do your own testing !!!!                                               |
|      Unfortunately you need to use the default for GW and RPA calculations. |
|      (for HF NCORE is supported but not extensively tested yet)             |
|                                                                             |
 ----------------------------------------------------------------------------- 

 POTCAR:    PAW_PBE Au 04Oct2007                  
   SHA256 =  d0044ae04e2bdce24051b198fc5c053d722a5bc6fe3c3b100514a13fc5d2db88 Au
   COPYR  = (c) Copyright 04Oct2007 Georg Kresse                                
   COPYR  = This file is part of the software VASP. Any use, copying, and all ot
   COPYR  = If you do not have a valid VASP license, you may not use, copy or di
   VRHFIN =Au: s1d10                                                            
   LEXCH  = PE                                                                  
   EATOM  =   926.0867 eV,   68.0654 Ry                                         
                                                                                
   TITEL  = PAW_PBE Au 04Oct2007                                                
   LULTRA =        F    use ultrasoft PP ?                                      
   IUNSCR =        1    unscreen: 0-lin 1-nonlin 2-no                           
   RPACOR =    2.330    partial core radius                                     
   POMASS =  196.966; ZVAL   =   11.000    mass and valenz                      
   RCORE  =    2.500    outmost cutoff radius                                   
   RWIGS  =    2.840; RWIGS  =    1.503    wigner-seitz radius (au A)           
   ENMAX  =  229.943; ENMIN  =  172.457 eV                                      
   ICORE  =        3    local potential                                         
   LCOR   =        T    correct aug charges                                     
   LPAW   =        T    paw PP                                                  
   EAUG   =  356.670                                                            
   DEXC   =    0.000                                                            
   RMAX   =    2.562    core radius for proj-oper                               
   RAUG   =    1.300    factor for augmentation sphere                          
   RDEP   =    2.598    radius for radial grids                                 
   RDEPT  =    2.193    core radius for aug-charge                              
                                                                                
   Atomic configuration                                                         
   16 entries                                                                   
     n  l   j            E        occ.                                          
     1  0  0.50    -80748.5001   2.0000                                         
     2  0  0.50    -14244.7466   2.0000                                         
     2  1  1.50    -12310.9591   6.0000                                         
     3  0  0.50     -3362.1768   2.0000                                         
     3  1  1.50     -2801.5463   6.0000                                         
     3  2  2.50     -2203.8206  10.0000                                         
     4  0  0.50      -729.8168   2.0000                                         
     4  1  1.50      -546.0527   6.0000                                         
     4  2  2.50      -325.7302  10.0000                                         
     4  3  3.50       -81.1472  14.0000                                         
     5  0  0.50      -108.3201   2.0000                                         
     5  1  1.50       -59.7479   6.0000                                         
     5  2  2.50        -6.8783  10.0000                                         
     6  0  0.50        -5.7602   1.0000                                         
     6  1  1.50        -6.8029   0.0000                                         
     5  3  2.50        -1.3606   0.0000                                         
   Description                                                                  
     l       E           TYP  RCUT    TYP  RCUT                                 
     2     -6.8782861     23  2.500                                             
     2     -8.2388687     23  2.500                                             
     0     -5.7601759     23  2.500                                             
     0     -0.8493231     23  2.500                                             
     1     -2.7211652     23  2.500                                             
     1     27.2116520     23  2.500                                             
     3     -1.3605826     23  2.500                                             
  local pseudopotential read in
  partial core-charges read in
  partial kinetic energy density read in
  atomic valenz-charges read in
  non local Contribution for L=           2  read in
    real space projection operators read in
  non local Contribution for L=           2  read in
    real space projection operators read in
  non local Contribution for L=           0  read in
    real space projection operators read in
  non local Contribution for L=           0  read in
    real space projection operators read in
  non local Contribution for L=           1  read in
    real space projection operators read in
  non local Contribution for L=           1  read in
    real space projection operators read in
    PAW grid and wavefunctions read in
 
   number of l-projection  operators is LMAX  =           6
   number of lm-projection operators is LMMAX =          18
 
 POTCAR:    PAW_PBE Pt 04Feb2005                  
   SHA256 =  3ed90460adef76debcff1cfb73ee1349b515b1a3db03439735b44de3a8db7dc8 Pt
   COPYR  = (c) Copyright 04Feb2005 Georg Kresse                                
   COPYR  = This file is part of the software VASP. Any use, copying, and all ot
   COPYR  = If you do not have a valid VASP license, you may not use, copy or di
   VRHFIN =Pt: s1d9                                                             
   LEXCH  = PE                                                                  
   EATOM  =   729.1176 eV,   53.5886 Ry                                         
                                                                                
   TITEL  = PAW_PBE Pt 04Feb2005                                                
   LULTRA =        F    use ultrasoft PP ?                                      
   IUNSCR =        1    unscreen: 0-lin 1-nonlin 2-no                           
   RPACOR =    2.330    partial core radius                                     
   POMASS =  195.080; ZVAL   =   10.000    mass and valenz                      
   RCORE  =    2.600    outmost cutoff radius                                   
   RWIGS  =    2.750; RWIGS  =    1.455    wigner-seitz radius (au A)           
   ENMAX  =  230.283; ENMIN  =  172.712 eV                                      
   ICORE  =        3    local potential                                         
   LCOR   =        T    correct aug charges                                     
   LPAW   =        T    paw PP                                                  
   EAUG   =  358.966                                                            
   DEXC   =    0.000                                                            
   RMAX   =    2.658    core radius for proj-oper                               
   RAUG   =    1.300    factor for augmentation sphere                          
   RDEP   =    2.761    radius for radial grids                                 
   RDEPT  =    2.203    core radius for aug-charge                              
                                                                                
   Atomic configuration                                                         
   16 entries                                                                   
     n  l   j            E        occ.                                          
     1  0  0.50    -78401.1885   2.0000                                         
     2  0  0.50    -13770.7750   2.0000                                         
     2  1  1.50    -11931.0468   6.0000                                         
     3  0  0.50     -3234.7234   2.0000                                         
     3  1  1.50     -2699.2216   6.0000                                         
     3  2  2.50     -2119.5714  10.0000                                         
     4  0  0.50      -695.1528   2.0000                                         
     4  1  1.50      -519.6034   6.0000                                         
     4  2  2.50      -306.6786  10.0000                                         
     4  3  3.50       -70.1041  14.0000                                         
     5  0  0.50      -101.7747   2.0000                                         
     5  1  1.50       -55.9873   6.0000                                         
     5  2  2.50        -6.1423   9.0000                                         
     6  0  0.50        -5.6573   1.0000                                         
     6  1  1.50        -6.8029   0.0000                                         
     5  3  2.50        -1.3606   0.0000                                         
   Description                                                                  
     l       E           TYP  RCUT    TYP  RCUT                                 
     2     -6.1423404     23  2.500                                             
     2     -7.5029230     23  2.500                                             
     0     -5.6573207     23  2.500                                             
     0      0.7416693     23  2.500                                             
     1     -2.7211652     23  2.600                                             
     1     20.4087390     23  2.600                                             
     3     -1.3605826     23  2.500                                             
  local pseudopotential read in
  partial core-charges read in
  partial kinetic energy density read in
  atomic valenz-charges read in
  non local Contribution for L=           2  read in
    real space projection operators read in
  non local Contribution for L=           2  read in
    real space projection operators read in
  non local Contribution for L=           0  read in
    real space projection operators read in
  non local Contribution for L=           0  read in
    real space projection operators read in
  non local Contribution for L=           1  read in
    real space projection operators read in
  non local Contribution for L=           1  read in
    real space projection operators read in
    PAW grid and wavefunctions read in
 
   number of l-projection  operators is LMAX  =           6
   number of lm-projection operators is LMMAX =          18
 
 POTCAR:    PAW_PBE Ir 06Sep2000                  
   SHA256 =  7c6af8d4d487b237782eb51e6f62977b27a1da78c3c96acd1cebefd6c308f120 Ir
   COPYR  = (c) Copyright 06Sep2000 Georg Kresse                                
   COPYR  = This file is part of the software VASP. Any use, copying, and all ot
   COPYR  = If you do not have a valid VASP license, you may not use, copy or di
   VRHFIN =Ir: s1d8                                                             
   LEXCH  = PE                                                                  
   EATOM  =   560.1833 eV,   41.1723 Ry                                         
                                                                                
   TITEL  = PAW_PBE Ir 06Sep2000                                                
   LULTRA =        F    use ultrasoft PP ?                                      
   IUNSCR =        1    unscreen: 0-lin 1-nonlin 2-no                           
   RPACOR =    2.250    partial core radius                                     
   POMASS =  192.220; ZVAL   =    9.000    mass and valenz                      
   RCORE  =    2.600    outmost cutoff radius                                   
   RWIGS  =    2.690; RWIGS  =    1.423    wigner-seitz radius (au A)           
   ENMAX  =  210.864; ENMIN  =  158.148 eV                                      
   RCLOC  =    1.857    cutoff for local pot                                    
   LCOR   =        T    correct aug charges                                     
   LPAW   =        T    paw PP                                                  
   EAUG   =  318.962                                                            
   DEXC   =    0.000                                                            
   RMAX   =    2.667    core radius for proj-oper                               
   RAUG   =    1.300    factor for augmentation sphere                          
   RDEP   =    2.748    radius for radial grids                                 
   RDEPT  =    2.300    core radius for aug-charge                              
                                                                                
   Atomic configuration                                                         
   16 entries                                                                   
     n  l   j            E        occ.                                          
     1  0  0.50    -76100.0449   2.0000                                         
     2  0  0.50    -13308.1683   2.0000                                         
     2  1  1.50    -11558.0021   6.0000                                         
     3  0  0.50     -3110.7274   2.0000                                         
     3  1  1.50     -2599.2109   6.0000                                         
     3  2  2.50     -2037.1515  10.0000                                         
     4  0  0.50      -661.6001   2.0000                                         
     4  1  1.50      -493.8981   6.0000                                         
     4  2  2.50      -288.1909  10.0000                                         
     4  3  3.50       -59.5718  14.0000                                         
     5  0  0.50       -95.3879   2.0000                                         
     5  1  1.50       -52.2747   6.0000                                         
     5  2  2.50        -5.4180   8.0000                                         
     6  0  0.50        -5.5479   1.0000                                         
     6  1  1.50        -6.8029   0.0000                                         
     5  3  2.50        -1.3606   0.0000                                         
   Description                                                                  
     l       E           TYP  RCUT    TYP  RCUT                                 
     2     -5.4179967     23  2.600                                             
     2     -6.7785793     23  2.600                                             
     0     -5.5478636     23  2.600                                             
     0      2.2542272     23  2.600                                             
     1     -2.7211652     23  2.600                                             
     1     20.4087390     23  2.600                                             
  local pseudopotential read in
  partial core-charges read in
  partial kinetic energy density read in
  atomic valenz-charges read in
  non local Contribution for L=           2  read in
    real space projection operators read in
  non local Contribution for L=           2  read in
    real space projection operators read in
  non local Contribution for L=           0  read in
    real space projection operators read in
  non local Contribution for L=           0  read in
    real space projection operators read in
  non local Contribution for L=           1  read in
    real space projection operators read in
  non local Contribution for L=           1  read in
    real space projection operators read in
    PAW grid and wavefunctions read in
 
   number of l-projection  operators is LMAX  =           6
   number of lm-projection operators is LMMAX =          18
 
  PAW_PBE Au 04Oct2007                  :
 energy of atom  1       EATOM= -926.0867
 kinetic energy error for atom=    0.0152 (will be added to EATOM!!)
  PAW_PBE Pt 04Feb2005                  :
 energy of atom  2       EATOM= -729.1176
 kinetic energy error for atom=    0.0144 (will be added to EATOM!!)
  PAW_PBE Ir 06Sep2000                  :
 energy of atom  3       EATOM= -560.1833
 kinetic energy error for atom=    0.0056 (will be added to EATOM!!)
 
 
 POSCAR: Au Pt Ir                                
  positions in cartesian coordinates
  No initial velocities read in
 exchange correlation table for  LEXCH =        8
   RHO(1)=    0.500       N(1)  =     2000
   RHO(2)=  100.500       N(2)  =     4000
 


--------------------------------------------------------------------------------------------------------


 ion  position               nearest neighbor table
   1  0.000  0.000  0.390-   3 2.78   3 2.78   4 2.78   4 2.78   2 2.78   2 2.78   5 2.82   6 2.82
                             7 2.82
   2  0.500  0.000  0.390-   4 2.78   3 2.78   4 2.78   3 2.78   1 2.78   1 2.78   6 2.82   5 2.82
                             8 2.82
   3  0.000  0.500  0.390-   1 2.78   1 2.78   2 2.78   2 2.78   4 2.78   4 2.78   7 2.82   5 2.82
                             8 2.82
   4  0.500  0.500  0.390-   2 2.78   1 2.78   2 2.78   1 2.78   3 2.78   3 2.78   8 2.82   7 2.82
                             6 2.82
   5  0.167  0.167  0.465-   7 2.78   7 2.78   8 2.78   8 2.78   6 2.78   6 2.78   9 2.80  12 2.80
                            10 2.80   1 2.82   3 2.82   2 2.82
   6  0.667  0.167  0.465-   8 2.78   7 2.78   8 2.78   7 2.78   5 2.78   5 2.78  10 2.80  11 2.80
                             9 2.80   2 2.82   4 2.82   1 2.82
   7  0.167  0.667  0.465-   5 2.78   5 2.78   6 2.78   6 2.78   8 2.78   8 2.78  10 2.80  11 2.80
                            12 2.80   3 2.82   4 2.82   1 2.82
   8  0.667  0.667  0.465-   6 2.78   5 2.78   6 2.78   5 2.78   7 2.78   7 2.78   9 2.80  12 2.80
                            11 2.80   4 2.82   2 2.82   3 2.82
   9  0.833  0.333  0.539-  11 2.78  11 2.78  12 2.78  12 2.78  10 2.78  10 2.78   5 2.80   8 2.80
                             6 2.80  14 2.83  16 2.83  15 2.83
  10  0.333  0.333  0.539-  12 2.78  11 2.78  12 2.78  11 2.78   9 2.78   9 2.78   6 2.80   7 2.80
                             5 2.80  15 2.83  13 2.83  14 2.83
  11  0.833  0.833  0.539-   9 2.78   9 2.78  10 2.78  10 2.78  12 2.78  12 2.78   6 2.80   7 2.80
                             8 2.80  16 2.83  14 2.83  13 2.83
  12  0.333  0.833  0.539-  10 2.78   9 2.78  10 2.78   9 2.78  11 2.78  11 2.78   5 2.80   8 2.80
                             7 2.80  13 2.83  15 2.83  16 2.83
  13  0.500  0.000  0.615-  15 2.78  14 2.78  15 2.78  14 2.78  16 2.78  16 2.78  12 2.83  10 2.83
                            11 2.83
  14  0.000  0.500  0.615-  16 2.78  13 2.78  16 2.78  13 2.78  15 2.78  15 2.78   9 2.83  11 2.83
                            10 2.83
  15  0.500  0.500  0.615-  13 2.78  13 2.78  16 2.78  16 2.78  14 2.78  14 2.78  10 2.83  12 2.83
                             9 2.83
  16  0.000  0.000  0.615-  14 2.78  14 2.78  15 2.78  15 2.78  13 2.78  13 2.78  11 2.83   9 2.83
                            12 2.83
 
  LATTYP: Found a hexagonal cell.
 ALAT       =     5.5578593001
 C/A-ratio  =     5.5429542221
  
  Lattice vectors:
  
 A1 = (   2.7789296501,  -4.8132473446,   0.0000000000)
 A2 = (  -5.5578593001,   0.0000000000,   0.0000000000)
 A3 = (   0.0000000000,   0.0000000000, -30.8069596737)


Analysis of symmetry for initial positions (statically):
=====================================================================
 Subroutine PRICEL returns:
 Original cell was already a primitive cell.
 

 Routine SETGRP: Setting up the symmetry group for a 
 hexagonal supercell.


 Subroutine GETGRP returns: Found  6 space group operations
 (whereof  6 operations were pure point group operations)
 out of a pool of 24 trial point group operations.


The static configuration has the point symmetry C_3v.


Analysis of symmetry for dynamics (positions and initial velocities):
=====================================================================
 Subroutine PRICEL returns:
 Original cell was already a primitive cell.
 

 Routine SETGRP: Setting up the symmetry group for a 
 hexagonal supercell.


 Subroutine GETGRP returns: Found  6 space group operations
 (whereof  6 operations were pure point group operations)
 out of a pool of 24 trial point group operations.


The dynamic configuration has the point symmetry C_3v.


Analysis of constrained symmetry for selective dynamics:
=====================================================================
 Subroutine PRICEL returns:
 Original cell was already a primitive cell.
 

 Routine SETGRP: Setting up the symmetry group for a 
 hexagonal supercell.


 Subroutine GETGRP returns: Found  6 space group operations
 (whereof  6 operations were pure point group operations)
 out of a pool of 24 trial point group operations.


The constrained configuration has the point symmetry C_3v.


 Subroutine INISYM returns: Found  6 space group operations
 (whereof  6 operations are pure point group operations),
 and found     1 'primitive' translations

 
 
 KPOINTS: KPOINTS created by Atomic Simulation Env

Automatic generation of k-mesh.
Space group operators:
 irot       det(A)        alpha          n_x          n_y          n_z        tau_x        tau_y        tau_z
    1     1.000000     0.000001     1.000000     0.000000     0.000000     0.000000     0.000000     0.000000
    2     1.000000   120.000000     0.000000     0.000000     1.000000     0.000000     0.000000     0.000000
    3     1.000000   120.000000     0.000000     0.000000    -1.000000     0.000000     0.000000     0.000000
    4    -1.000000   180.000000     0.500000    -0.866025     0.000000     0.000000     0.000000     0.000000
    5    -1.000000   180.000000     1.000000     0.000000     0.000000     0.000000     0.000000     0.000000
    6    -1.000000   180.000000    -0.500000    -0.866025     0.000000     0.000000     0.000000     0.000000
 
 Subroutine IBZKPT returns following result:
 ===========================================
 
 Found     20 irreducible k-points:
 
 Following reciprocal coordinates:
            Coordinates               Weight
  0.062500  0.062500  0.000000     48.000000
  0.187500  0.062500  0.000000     96.000000
  0.312500  0.062500  0.000000     96.000000
  0.437500  0.062500  0.000000     96.000000
 -0.437500  0.062500  0.000000     96.000000
 -0.312500  0.062500  0.000000     96.000000
 -0.187500  0.062500  0.000000     96.000000
 -0.062500  0.062500  0.000000     48.000000
  0.187500  0.187500  0.000000     48.000000
  0.312500  0.187500  0.000000     96.000000
  0.437500  0.187500  0.000000     96.000000
 -0.437500  0.187500  0.000000     96.000000
 -0.312500  0.187500  0.000000     96.000000
 -0.187500  0.187500  0.000000     48.000000
  0.312500  0.312500  0.000000     48.000000
  0.437500  0.312500  0.000000     96.000000
 -0.437500  0.312500  0.000000     96.000000
 -0.312500  0.312500  0.000000     48.000000
  0.437500  0.437500  0.000000     48.000000
 -0.437500  0.437500  0.000000     48.000000
 
 Following cartesian coordinates:
            Coordinates               Weight
  0.011245  0.006492  0.000000     48.000000
  0.033736 -0.006492  0.000000     96.000000
  0.056227 -0.019477  0.000000     96.000000
  0.078717 -0.032462  0.000000     96.000000
 -0.078717  0.058432  0.000000     96.000000
 -0.056227  0.045447  0.000000     96.000000
 -0.033736  0.032462  0.000000     96.000000
 -0.011245  0.019477  0.000000     48.000000
  0.033736  0.019477  0.000000     48.000000
  0.056227  0.006492  0.000000     96.000000
  0.078717 -0.006492  0.000000     96.000000
 -0.078717  0.084402  0.000000     96.000000
 -0.056227  0.071417  0.000000     96.000000
 -0.033736  0.058432  0.000000     48.000000
  0.056227  0.032462  0.000000     48.000000
  0.078717  0.019477  0.000000     96.000000
 -0.078717  0.110372  0.000000     96.000000
 -0.056227  0.097387  0.000000     48.000000
  0.078717  0.045447  0.000000     48.000000
 -0.078717  0.136342  0.000000     48.000000
 


--------------------------------------------------------------------------------------------------------




 Dimension of arrays:
   k-points           NKPTS =     20   k-points in BZ     NKDIM =     20   number of bands    NBANDS=     96
   number of dos      NEDOS =    301   number of ions     NIONS =     16
   non local maximal  LDIM  =      6   non local SUM 2l+1 LMDIM =     18
   total plane-waves  NPLWV = 112896
   max r-space proj   IRMAX =      1   max aug-charges    IRDMAX=  10104
   dimension x,y,z NGX =    28 NGY =   28 NGZ =  144
   dimension x,y,z NGXF=    56 NGYF=   56 NGZF=  288
   support grid    NGXF=    56 NGYF=   56 NGZF=  288
   ions per type =               1  14   1
   NGX,Y,Z   is equivalent  to a cutoff of   8.38,  8.38,  7.77 a.u.
   NGXF,Y,Z  is equivalent  to a cutoff of  16.75, 16.75, 15.54 a.u.

 SYSTEM =  unknown system                          
 POSCAR =  Au Pt Ir                                

 Startparameter for this run:
   NWRITE =      2    write-flag & timer
   PREC   = normal    normal or accurate (medium, high low for compatibility)
   ISTART =      0    job   : 0-new  1-cont  2-samecut
   ICHARG =      2    charge: 1-file 2-atom 10-const
   ISPIN  =      1    spin polarized calculation?
   LNONCOLLINEAR =      F non collinear calculations
   LSORBIT =      F    spin-orbit coupling
   INIWAV =      1    electr: 0-lowe 1-rand  2-diag
   LASPH  =      F    aspherical Exc in radial PAW
   METAGGA=      F    non-selfconsistent MetaGGA calc.

 Electronic Relaxation 1
   ENCUT  =  350.0 eV  25.72 Ry    5.07 a.u.   8.48  8.48 46.99*2*pi/ulx,y,z
   ENINI  =  350.0     initial cutoff
   ENAUG  =  359.0 eV  augmentation charge cutoff
   NELM   =     60;   NELMIN=  2; NELMDL= -5     # of ELM steps 
   EDIFF  = 0.1E-04   stopping-criterion for ELM
   LREAL  =      F    real-space projection
   NLSPLINE    = F    spline interpolate recip. space projectors
   LCOMPAT=      F    compatible to vasp.4.4
   GGA_COMPAT  = T    GGA compatible to vasp.4.4-vasp.4.6
   LMAXPAW     = -100 max onsite density
   LMAXMIX     =    2 max onsite mixed and CHGCAR
   VOSKOWN=      0    Vosko Wilk Nusair interpolation
   ROPT   =    0.00000   0.00000   0.00000
 Ionic relaxation
   EDIFFG = -.5E-01   stopping-criterion for IOM
   NSW    =      0    number of steps for IOM
   NBLOCK =      1;   KBLOCK =      1    inner block; outer block 
   IBRION =     -1    ionic relax: 0-MD 1-quasi-New 2-CG
   NFREE  =      1    steps in history (QN), initial steepest desc. (CG)
   ISIF   =      2    stress and relaxation
   IWAVPR =     10    prediction:  0-non 1-charg 2-wave 3-comb
   ISYM   =      2    0-nonsym 1-usesym 2-fastsym
   LCORR  =      T    Harris-Foulkes like correction to forces

   POTIM  = 0.5000    time-step for ionic-motion
   TEIN   =    0.0    initial temperature
   TEBEG  =    0.0;   TEEND  =   0.0 temperature during run
   SMASS  =  -3.00    Nose mass-parameter (am)
   estimated Nose-frequenzy (Omega)   =  0.10E-29 period in steps =****** mass=  -0.706E-27a.u.
   SCALEE = 1.0000    scale energy and forces
   NPACO  =    256;   APACO  = 16.0  distance and # of slots for P.C.
   PSTRESS=    0.0 pullay stress

  Mass of Ions in am
   POMASS = 196.97195.08192.22
  Ionic Valenz
   ZVAL   =  11.00 10.00  9.00
  Atomic Wigner-Seitz radii
   RWIGS  =  -1.00 -1.00 -1.00
  virtual crystal weights 
   VCA    =   1.00  1.00  1.00
   NELECT =     160.0000    total number of electrons
   NUPDOWN=      -1.0000    fix difference up-down

 DOS related values:
   EMIN   =  10.00;   EMAX   =-10.00  energy-range for DOS
   EFERMI =   0.00
   ISMEAR =     1;   SIGMA  =   0.20  broadening in eV -4-tet -1-fermi 0-gaus

 Electronic relaxation 2 (details)
   IALGO  =     38    algorithm
   LDIAG  =      T    sub-space diagonalisation (order eigenvalues)
   LSUBROT=      F    optimize rotation matrix (better conditioning)
   TURBO    =      0    0=normal 1=particle mesh
   IRESTART =      0    0=no restart 2=restart with 2 vectors
   NREBOOT  =      0    no. of reboots
   NMIN     =      0    reboot dimension
   EREF     =   0.00    reference energy to select bands
   IMIX   =      4    mixing-type and parameters
     AMIX     =   0.40;   BMIX     =  1.00
     AMIX_MAG =   1.60;   BMIX_MAG =  1.00
     AMIN     =   0.10
     WC   =   100.;   INIMIX=   1;  MIXPRE=   1;  MAXMIX= -45

 Intra band minimization:
   WEIMIN = 0.0000     energy-eigenvalue tresh-hold
   EBREAK =  0.26E-07  absolut break condition
   DEPER  =   0.30     relativ break condition  

   TIME   =   0.40     timestep for ELM

  volume/ion in A,a.u.               =      51.51       347.59
  Fermi-wavevector in a.u.,A,eV,Ry     =   0.947945  1.791357 12.226201  0.898600
  Thomas-Fermi vector in A             =   2.076087
 
 Write flags
   LWAVE        =      F    write WAVECAR
   LDOWNSAMPLE  =      F    k-point downsampling of WAVECAR
   LCHARG       =      F    write CHGCAR
   LVTOT        =      F    write LOCPOT, total local potential
   LVHAR        =      F    write LOCPOT, Hartree potential only
   LELF         =      F    write electronic localiz. function (ELF)
   LORBIT       =      0    0 simple, 1 ext, 2 COOP (PROOUT), +10 PAW based schemes


 Dipole corrections
   LMONO  =      F    monopole corrections only (constant potential shift)
   LDIPOL =      F    correct potential (dipole corrections)
   IDIPOL =      3    1-x, 2-y, 3-z, 4-all directions 
   EPSILON=  1.0000000 bulk dielectric constant

 Exchange correlation treatment:
   GGA     =    PE    GGA type
   LEXCH   =     8    internal setting for exchange type
   VOSKOWN=      0    Vosko Wilk Nusair interpolation
   LHFCALC =     F    Hartree Fock is set to
   LHFONE  =     F    Hartree Fock one center treatment
   AEXX    =    0.0000 exact exchange contribution

 Linear response parameters
   LEPSILON=     F    determine dielectric tensor
   LRPA    =     F    only Hartree local field effects (RPA)
   LNABLA  =     F    use nabla operator in PAW spheres
   LVEL    =     F    velocity operator in full k-point grid
   LINTERFAST=   F  fast interpolation
   KINTER  =     0    interpolate to denser k-point grid
   CSHIFT  =0.1000    complex shift for real part using Kramers Kronig
   OMEGAMAX=  -1.0    maximum frequency
   DEG_THRESHOLD= 0.2000000E-02 threshold for treating states as degnerate
   RTIME   =   -0.100 relaxation time in fs
  (WPLASMAI=    0.000 imaginary part of plasma frequency in eV, 0.658/RTIME)
   DFIELD  = 0.0000000 0.0000000 0.0000000 field for delta impulse in time
 
 Orbital magnetization related:
   ORBITALMAG=     F  switch on orbital magnetization
   LCHIMAG   =     F  perturbation theory with respect to B field
   DQ        =  0.001000  dq finite difference perturbation B field
   LLRAUG    =     F  two centre corrections for induced B field



--------------------------------------------------------------------------------------------------------


 Static calculation
 charge density and potential will be updated during run
 non-spin polarized calculation
 Variant of blocked Davidson
 Davidson routine will perform the subspace rotation
 perform sub-space diagonalisation
    after iterative eigenvector-optimisation
 modified Broyden-mixing scheme, WC =      100.0
 initial mixing is a Kerker type mixing with AMIX =  0.4000 and BMIX =      1.0000
 Hartree-type preconditioning will be used
 using additional bands           16
 reciprocal scheme for non local part
 use partial core corrections
 calculate Harris-corrections to forces 
   (improved forces if not selfconsistent)
 use gradient corrections 
 use of overlap-Matrix (Vanderbilt PP)
 Methfessel and Paxton  Order N= 1 SIGMA  =   0.20


--------------------------------------------------------------------------------------------------------


  energy-cutoff  :      350.00
  volume of cell :      824.13
      direct lattice vectors                 reciprocal lattice vectors
     5.557859300  0.000000000  0.000000000     0.179925390 -0.103879972  0.000000000
     2.778929650  4.813247345  0.000000000     0.000000000  0.207759944  0.000000000
     0.000000000  0.000000000 30.806959674     0.000000000  0.000000000  0.032460198

  length of vectors
     5.557859300  5.557859300 30.806959674     0.207759944  0.207759944  0.032460198


 
 k-points in units of 2pi/SCALE and weight: KPOINTS created by Atomic Simulation Env
   0.01124534  0.00649250  0.00000000       0.031
   0.03373601 -0.00649250  0.00000000       0.062
   0.05622668 -0.01947749  0.00000000       0.062
   0.07871736 -0.03246249  0.00000000       0.062
  -0.07871736  0.05843248  0.00000000       0.062
  -0.05622668  0.04544749  0.00000000       0.062
  -0.03373601  0.03246249  0.00000000       0.062
  -0.01124534  0.01947749  0.00000000       0.031
   0.03373601  0.01947749  0.00000000       0.031
   0.05622668  0.00649250  0.00000000       0.062
   0.07871736 -0.00649250  0.00000000       0.062
  -0.07871736  0.08440248  0.00000000       0.062
  -0.05622668  0.07141748  0.00000000       0.062
  -0.03373601  0.05843248  0.00000000       0.031
   0.05622668  0.03246249  0.00000000       0.031
   0.07871736  0.01947749  0.00000000       0.062
  -0.07871736  0.11037247  0.00000000       0.062
  -0.05622668  0.09738747  0.00000000       0.031
   0.07871736  0.04544749  0.00000000       0.031
  -0.07871736  0.13634246  0.00000000       0.031
 
 k-points in reciprocal lattice and weights: KPOINTS created by Atomic Simulation Env
   0.06250000  0.06250000  0.00000000       0.031
   0.18750000  0.06250000  0.00000000       0.062
   0.31250000  0.06250000  0.00000000       0.062
   0.43750000  0.06250000  0.00000000       0.062
  -0.43750000  0.06250000  0.00000000       0.062
  -0.31250000  0.06250000  0.00000000       0.062
  -0.18750000  0.06250000  0.00000000       0.062
  -0.06250000  0.06250000  0.00000000       0.031
   0.18750000  0.18750000  0.00000000       0.031
   0.31250000  0.18750000  0.00000000       0.062
   0.43750000  0.18750000  0.00000000       0.062
  -0.43750000  0.18750000  0.00000000       0.062
  -0.31250000  0.18750000  0.00000000       0.062
  -0.18750000  0.18750000  0.00000000       0.031
   0.31250000  0.31250000  0.00000000       0.031
   0.43750000  0.31250000  0.00000000       0.062
  -0.43750000  0.31250000  0.00000000       0.062
  -0.31250000  0.31250000  0.00000000       0.031
   0.43750000  0.43750000  0.00000000       0.031
  -0.43750000  0.43750000  0.00000000       0.031
 
 position of ions in fractional coordinates (direct lattice) 
   0.00000000  0.00000000  0.38952237
   0.50000000  0.00000000  0.38952237
   0.00000000  0.50000000  0.38952237
   0.50000000  0.50000000  0.38952237
   0.16666667  0.16666667  0.46468540
   0.66666667  0.16666667  0.46468540
   0.16666667  0.66666667  0.46468540
   0.66666667  0.66666667  0.46468540
   0.83333333  0.33333333  0.53920296
   0.33333333  0.33333333  0.53920296
   0.83333333  0.83333333  0.53920296
   0.33333333  0.83333333  0.53920296
   0.50000000  0.00000000  0.61486043
   0.00000000  0.50000000  0.61486043
   0.50000000  0.50000000  0.61486043
   0.00000000  0.00000000  0.61486043
 
 position of ions in cartesian coordinates  (Angst):
   0.00000000  0.00000000 12.00000000
   2.77892965  0.00000000 12.00000000
   1.38946483  2.40662367 12.00000000
   4.16839448  2.40662367 12.00000000
   1.38946483  0.80220789 14.31554441
   4.16839448  0.80220789 14.31554441
   2.77892965  3.20883156 14.31554441
   5.55785930  3.20883156 14.31554441
   5.55785930  1.60441578 16.61120399
   2.77892965  1.60441578 16.61120399
   6.94732413  4.01103945 16.61120399
   4.16839448  4.01103945 16.61120399
   2.77892965  0.00000000 18.94198048
   1.38946483  2.40662367 18.94198048
   4.16839448  2.40662367 18.94198048
   0.00000000  0.00000000 18.94198048
 


--------------------------------------------------------------------------------------------------------


 k-point  1 :   0.0625 0.0625 0.0000  plane waves:   12325
 k-point  2 :   0.1875 0.0625 0.0000  plane waves:   12294
 k-point  3 :   0.3125 0.0625 0.0000  plane waves:   12263
 k-point  4 :   0.4375 0.0625 0.0000  plane waves:   12221
 k-point  5 :  -0.4375 0.0625 0.0000  plane waves:   12211
 k-point  6 :  -0.3125 0.0625 0.0000  plane waves:   12242
 k-point  7 :  -0.1875 0.0625 0.0000  plane waves:   12280
 k-point  8 :  -0.0625 0.0625 0.0000  plane waves:   12329
 k-point  9 :   0.1875 0.1875 0.0000  plane waves:   12277
 k-point 10 :   0.3125 0.1875 0.0000  plane waves:   12288
 k-point 11 :   0.4375 0.1875 0.0000  plane waves:   12234
 k-point 12 :  -0.4375 0.1875 0.0000  plane waves:   12216
 k-point 13 :  -0.3125 0.1875 0.0000  plane waves:   12215
 k-point 14 :  -0.1875 0.1875 0.0000  plane waves:   12289
 k-point 15 :   0.3125 0.3125 0.0000  plane waves:   12275
 k-point 16 :   0.4375 0.3125 0.0000  plane waves:   12239
 k-point 17 :  -0.4375 0.3125 0.0000  plane waves:   12235
 k-point 18 :  -0.3125 0.3125 0.0000  plane waves:   12232
 k-point 19 :   0.4375 0.4375 0.0000  plane waves:   12200
 k-point 20 :  -0.4375 0.4375 0.0000  plane waves:   12214

 maximum and minimum number of plane-waves per node :     12329    12200

 maximum number of plane-waves:     12329
 maximum index in each direction: 
   IXMAX=    8   IYMAX=    8   IZMAX=   46
   IXMIN=   -8   IYMIN=   -8   IZMIN=  -46


 serial   3D FFT for wavefunctions
 parallel 3D FFT for charge:
    minimum data exchange during FFTs selected (reduces bandwidth)


 total amount of memory used by VASP MPI-rank0   165803. kBytes
=======================================================================

   base      :      30000. kBytes
   nonl-proj :     109741. kBytes
   fftplans  :       2015. kBytes
   grid      :       7641. kBytes
   one-center:        248. kBytes
   wavefun   :      16158. kBytes
 
     INWAV:  cpu time    0.0000: real time    0.0000
 Broyden mixing: mesh for mixing (old mesh)
   NGX = 17   NGY = 17   NGZ = 93
  (NGX  = 56   NGY  = 56   NGZ  =288)
  gives a total of  26877 points

 initial charge density was supplied:
 charge density of overlapping atoms calculated
 number of electron     160.0000000 magnetization 
 keeping initial charge density in first step


--------------------------------------------------------------------------------------------------------


 Maximum index for augmentation-charges          821 (set IRDMAX)


--------------------------------------------------------------------------------------------------------


 First call to EWALD:  gamma=   0.189
 Maximum number of real-space cells 5x 5x 1
 Maximum number of reciprocal cells 2x 2x 8

    FEWALD:  cpu time    0.0012: real time    0.0012


--------------------------------------- Iteration      1(   1)  ---------------------------------------


    POTLOK:  cpu time    0.0219: real time    0.0285
    SETDIJ:  cpu time    0.0025: real time    0.0026
     EDDAV:  cpu time    4.2192: real time    4.2234
       DOS:  cpu time    0.0008: real time    0.0009
    --------------------------------------------
      LOOP:  cpu time    4.2445: real time    4.2554

 eigenvalue-minimisations  :  3840
 total energy-change (2. order) : 0.9754058E+03  (-0.5549971E+04)
 number of electron     160.0000000 magnetization 
 augmentation part      160.0000000 magnetization 

 Free energy of the ion-electron system (eV)
  ---------------------------------------------------
  alpha Z        PSCENC =       303.52543553
  Ewald energy   TEWEN  =     98439.91525945
  -Hartree energ DENC   =   -110511.42897205
  -exchange      EXHF   =         0.00000000
  -V(xc)+E(xc)   XCENC  =        46.26589481
  PAW double counting   =     11171.21661038   -10711.84633960
  entropy T*S    EENTRO =        -0.00034896
  eigenvalues    EBANDS =       544.06400901
  atomic energy  EATOM  =     11693.69420960
  Solvation  Ediel_sol  =         0.00000000
  ---------------------------------------------------
  free energy    TOTEN  =       975.40575816 eV

  energy without entropy =      975.40610712  energy(sigma->0) =      975.40587448


--------------------------------------------------------------------------------------------------------




--------------------------------------- Iteration      1(   2)  ---------------------------------------


     EDDAV:  cpu time    5.7569: real time    5.7581
       DOS:  cpu time    0.0007: real time    0.0007
    --------------------------------------------
      LOOP:  cpu time    5.7576: real time    5.7588

 eigenvalue-minimisations  :  5592
 total energy-change (2. order) :-0.1014002E+04  (-0.9832044E+03)
 number of electron     160.0000000 magnetization 
 augmentation part      160.0000000 magnetization 

 Free energy of the ion-electron system (eV)
  ---------------------------------------------------
  alpha Z        PSCENC =       303.52543553
  Ewald energy   TEWEN  =     98439.91525945
  -Hartree energ DENC   =   -110511.42897205
  -exchange      EXHF   =         0.00000000
  -V(xc)+E(xc)   XCENC  =        46.26589481
  PAW double counting   =     11171.21661038   -10711.84633960
  entropy T*S    EENTRO =        -0.00135328
  eigenvalues    EBANDS =      -469.93680661
  atomic energy  EATOM  =     11693.69420960
  Solvation  Ediel_sol  =         0.00000000
  ---------------------------------------------------
  free energy    TOTEN  =       -38.59606178 eV

  energy without entropy =      -38.59470850  energy(sigma->0) =      -38.59561069


--------------------------------------------------------------------------------------------------------




--------------------------------------- Iteration      1(   3)  ---------------------------------------


     EDDAV:  cpu time    5.2052: real time    5.2120
       DOS:  cpu time    0.0007: real time    0.0007
    --------------------------------------------
      LOOP:  cpu time    5.2059: real time    5.2127

 eigenvalue-minimisations  :  4800
 total energy-change (2. order) :-0.5838474E+02  (-0.5653590E+02)
 number of electron     160.0000000 magnetization 
 augmentation part      160.0000000 magnetization 

 Free energy of the ion-electron system (eV)
  ---------------------------------------------------
  alpha Z        PSCENC =       303.52543553
  Ewald energy   TEWEN  =     98439.91525945
  -Hartree energ DENC   =   -110511.42897205
  -exchange      EXHF   =         0.00000000
  -V(xc)+E(xc)   XCENC  =        46.26589481
  PAW double counting   =     11171.21661038   -10711.84633960
  entropy T*S    EENTRO =        -0.02332962
  eigenvalues    EBANDS =      -528.29956935
  atomic energy  EATOM  =     11693.69420960
  Solvation  Ediel_sol  =         0.00000000
  ---------------------------------------------------
  free energy    TOTEN  =       -96.98080086 eV

  energy without entropy =      -96.95747124  energy(sigma->0) =      -96.97302432


--------------------------------------------------------------------------------------------------------




--------------------------------------- Iteration      1(   4)  ---------------------------------------


     EDDAV:  cpu time    5.4237: real time    5.4270
       DOS:  cpu time    0.0007: real time    0.0007
    --------------------------------------------
      LOOP:  cpu time    5.4244: real time    5.4277

 eigenvalue-minimisations  :  5232
 total energy-change (2. order) :-0.1234224E+01  (-0.1228753E+01)
 number of electron     160.0000000 magnetization 
 augmentation part      160.0000000 magnetization 

 Free energy of the ion-electron system (eV)
  ---------------------------------------------------
  alpha Z        PSCENC =       303.52543553
  Ewald energy   TEWEN  =     98439.91525945
  -Hartree energ DENC   =   -110511.42897205
  -exchange      EXHF   =         0.00000000
  -V(xc)+E(xc)   XCENC  =        46.26589481
  PAW double counting   =     11171.21661038   -10711.84633960
  entropy T*S    EENTRO =        -0.02665690
  eigenvalues    EBANDS =      -529.53046584
  atomic energy  EATOM  =     11693.69420960
  Solvation  Ediel_sol  =         0.00000000
  ---------------------------------------------------
  free energy    TOTEN  =       -98.21502463 eV

  energy without entropy =      -98.18836773  energy(sigma->0) =      -98.20613900


--------------------------------------------------------------------------------------------------------




--------------------------------------- Iteration      1(   5)  ---------------------------------------


     EDDAV:  cpu time    5.9567: real time    5.9607
       DOS:  cpu time    0.0007: real time    0.0007
    CHARGE:  cpu time    0.1403: real time    0.1404
    MIXING:  cpu time    0.0010: real time    0.0011
    --------------------------------------------
      LOOP:  cpu time    6.0987: real time    6.1029

 eigenvalue-minimisations  :  5808
 total energy-change (2. order) :-0.3750673E-01  (-0.3747086E-01)
 number of electron     160.0000089 magnetization 
 augmentation part       46.9877854 magnetization 

 Broyden mixing:
  rms(total) = 0.41715E+01    rms(broyden)= 0.41714E+01
  rms(prec ) = 0.42007E+01
  weight for this iteration     100.00

 Free energy of the ion-electron system (eV)
  ---------------------------------------------------
  alpha Z        PSCENC =       303.52543553
  Ewald energy   TEWEN  =     98439.91525945
  -Hartree energ DENC   =   -110511.42897205
  -exchange      EXHF   =         0.00000000
  -V(xc)+E(xc)   XCENC  =        46.26589481
  PAW double counting   =     11171.21661038   -10711.84633960
  entropy T*S    EENTRO =        -0.02670590
  eigenvalues    EBANDS =      -529.56792357
  atomic energy  EATOM  =     11693.69420960
  Solvation  Ediel_sol  =         0.00000000
  ---------------------------------------------------
  free energy    TOTEN  =       -98.25253136 eV

  energy without entropy =      -98.22582546  energy(sigma->0) =      -98.24362939


--------------------------------------------------------------------------------------------------------




--------------------------------------- Iteration      1(   6)  ---------------------------------------


    POTLOK:  cpu time    0.0183: real time    0.0239
    SETDIJ:  cpu time    0.0023: real time    0.0023
     EDDAV:  cpu time    4.8532: real time    4.8536
       DOS:  cpu time    0.0007: real time    0.0007
    CHARGE:  cpu time    0.1447: real time    0.1447
    MIXING:  cpu time    0.0009: real time    0.0009
    --------------------------------------------
      LOOP:  cpu time    5.0201: real time    5.0260

 eigenvalue-minimisations  :  4536
 total energy-change (2. order) : 0.3935978E+01  (-0.2922698E+01)
 number of electron     160.0000084 magnetization 
 augmentation part       49.5575047 magnetization 

 Broyden mixing:
  rms(total) = 0.30187E+01    rms(broyden)= 0.30187E+01
  rms(prec ) = 0.31150E+01
  weight for this iteration     100.00

 eigenvalues of (default mixing * dielectric matrix)
  average eigenvalue GAMMA=   1.3358
  1.3358

 Free energy of the ion-electron system (eV)
  ---------------------------------------------------
  alpha Z        PSCENC =       303.52543553
  Ewald energy   TEWEN  =     98439.91525945
  -Hartree energ DENC   =   -110322.65664351
  -exchange      EXHF   =         0.00000000
  -V(xc)+E(xc)   XCENC  =        42.08970953
  PAW double counting   =     12324.65292691   -11888.52827990
  entropy T*S    EENTRO =        -0.00997506
  eigenvalues    EBANDS =      -686.99919600
  atomic energy  EATOM  =     11693.69420960
  Solvation  Ediel_sol  =         0.00000000
  ---------------------------------------------------
  free energy    TOTEN  =       -94.31655345 eV

  energy without entropy =      -94.30657839  energy(sigma->0) =      -94.31322843


--------------------------------------------------------------------------------------------------------




--------------------------------------- Iteration      1(   7)  ---------------------------------------


    POTLOK:  cpu time    0.0167: real time    0.0169
    SETDIJ:  cpu time    0.0022: real time    0.0022
     EDDAV:  cpu time    5.9287: real time    5.9290
       DOS:  cpu time    0.0007: real time    0.0007
    CHARGE:  cpu time    0.1414: real time    0.1414
    MIXING:  cpu time    0.0008: real time    0.0008
    --------------------------------------------
      LOOP:  cpu time    6.0905: real time    6.0909

 eigenvalue-minimisations  :  5784
 total energy-change (2. order) :-0.3094675E+02  (-0.2531560E+02)
 number of electron     160.0000098 magnetization 
 augmentation part       48.7831879 magnetization 

 Broyden mixing:
  rms(total) = 0.50154E+01    rms(broyden)= 0.50153E+01
  rms(prec ) = 0.56467E+01
  weight for this iteration     100.00

 eigenvalues of (default mixing * dielectric matrix)
  average eigenvalue GAMMA=   1.1162
  2.0038  0.2285

 Free energy of the ion-electron system (eV)
  ---------------------------------------------------
  alpha Z        PSCENC =       303.52543553
  Ewald energy   TEWEN  =     98439.91525945
  -Hartree energ DENC   =   -110500.50158322
  -exchange      EXHF   =         0.00000000
  -V(xc)+E(xc)   XCENC  =        41.02413431
  PAW double counting   =     13226.23102303   -12800.49408175
  entropy T*S    EENTRO =         0.00687006
  eigenvalues    EBANDS =      -528.66457413
  atomic energy  EATOM  =     11693.69420960
  Solvation  Ediel_sol  =         0.00000000
  ---------------------------------------------------
  free energy    TOTEN  =      -125.26330711 eV

  energy without entropy =     -125.27017717  energy(sigma->0) =     -125.26559713


--------------------------------------------------------------------------------------------------------




--------------------------------------- Iteration      1(   8)  ---------------------------------------


    POTLOK:  cpu time    0.0170: real time    0.0171
    SETDIJ:  cpu time    0.0023: real time    0.0023
     EDDAV:  cpu time    6.1173: real time    6.1174
       DOS:  cpu time    0.0007: real time    0.0007
    CHARGE:  cpu time    0.1427: real time    0.1427
    MIXING:  cpu time    0.0009: real time    0.0009
    --------------------------------------------
      LOOP:  cpu time    6.2808: real time    6.2811

 eigenvalue-minimisations  :  5976
 total energy-change (2. order) : 0.2264447E+02  (-0.9283300E+01)
 number of electron     160.0000105 magnetization 
 augmentation part       50.0995660 magnetization 

 Broyden mixing:
  rms(total) = 0.27995E+01    rms(broyden)= 0.27995E+01
  rms(prec ) = 0.32490E+01
  weight for this iteration     100.00

 eigenvalues of (default mixing * dielectric matrix)
  average eigenvalue GAMMA=   0.9281
  2.1865  0.2989  0.2989

 Free energy of the ion-electron system (eV)
  ---------------------------------------------------
  alpha Z        PSCENC =       303.52543553
  Ewald energy   TEWEN  =     98439.91525945
  -Hartree energ DENC   =   -110366.74692767
  -exchange      EXHF   =         0.00000000
  -V(xc)+E(xc)   XCENC  =        40.10518889
  PAW double counting   =     13962.79233470   -13546.79534966
  entropy T*S    EENTRO =         0.00761608
  eigenvalues    EBANDS =      -629.11660809
  atomic energy  EATOM  =     11693.69420960
  Solvation  Ediel_sol  =         0.00000000
  ---------------------------------------------------
  free energy    TOTEN  =      -102.61884117 eV

  energy without entropy =     -102.62645725  energy(sigma->0) =     -102.62137986


--------------------------------------------------------------------------------------------------------




--------------------------------------- Iteration      1(   9)  ---------------------------------------


    POTLOK:  cpu time    0.0184: real time    0.0187
    SETDIJ:  cpu time    0.0023: real time    0.0023
     EDDAV:  cpu time    5.3567: real time    5.3569
       DOS:  cpu time    0.0007: real time    0.0007
    CHARGE:  cpu time    0.1408: real time    0.1408
    MIXING:  cpu time    0.0008: real time    0.0008
    --------------------------------------------
      LOOP:  cpu time    5.5197: real time    5.5202

 eigenvalue-minimisations  :  5088
 total energy-change (2. order) :-0.1928614E-01  (-0.1017476E+02)
 number of electron     160.0000083 magnetization 
 augmentation part       50.3059760 magnetization 

 Broyden mixing:
  rms(total) = 0.27722E+01    rms(broyden)= 0.27720E+01
  rms(prec ) = 0.36994E+01
  weight for this iteration     100.00

 eigenvalues of (default mixing * dielectric matrix)
  average eigenvalue GAMMA=   0.8592
  2.2746  0.7175  0.2857  0.1589

 Free energy of the ion-electron system (eV)
  ---------------------------------------------------
  alpha Z        PSCENC =       303.52543553
  Ewald energy   TEWEN  =     98439.91525945
  -Hartree energ DENC   =   -110318.29915549
  -exchange      EXHF   =         0.00000000
  -V(xc)+E(xc)   XCENC  =        40.08806935
  PAW double counting   =     14180.27715092   -13766.15481993
  entropy T*S    EENTRO =         0.02213567
  eigenvalues    EBANDS =      -675.70641240
  atomic energy  EATOM  =     11693.69420960
  Solvation  Ediel_sol  =         0.00000000
  ---------------------------------------------------
  free energy    TOTEN  =      -102.63812731 eV

  energy without entropy =     -102.66026298  energy(sigma->0) =     -102.64550587


--------------------------------------------------------------------------------------------------------




--------------------------------------- Iteration      1(  10)  ---------------------------------------


    POTLOK:  cpu time    0.0172: real time    0.0174
    SETDIJ:  cpu time    0.0023: real time    0.0023
     EDDAV:  cpu time    6.3266: real time    6.3268
       DOS:  cpu time    0.0007: real time    0.0007
    CHARGE:  cpu time    0.1418: real time    0.1418
    MIXING:  cpu time    0.0008: real time    0.0008
    --------------------------------------------
      LOOP:  cpu time    6.4893: real time    6.4898

 eigenvalue-minimisations  :  6168
 total energy-change (2. order) : 0.5884054E+00  (-0.8529617E+01)
 number of electron     160.0000091 magnetization 
 augmentation part       50.2285207 magnetization 

 Broyden mixing:
  rms(total) = 0.26016E+01    rms(broyden)= 0.26014E+01
  rms(prec ) = 0.32830E+01
  weight for this iteration     100.00

 eigenvalues of (default mixing * dielectric matrix)
  average eigenvalue GAMMA=   0.7610
  2.3716  0.8315  0.2397  0.2397  0.1227

 Free energy of the ion-electron system (eV)
  ---------------------------------------------------
  alpha Z        PSCENC =       303.52543553
  Ewald energy   TEWEN  =     98439.91525945
  -Hartree energ DENC   =   -110313.96496459
  -exchange      EXHF   =         0.00000000
  -V(xc)+E(xc)   XCENC  =        40.14036356
  PAW double counting   =     14345.26325975   -13931.52144638
  entropy T*S    EENTRO =        -0.02958691
  eigenvalues    EBANDS =      -679.07225194
  atomic energy  EATOM  =     11693.69420960
  Solvation  Ediel_sol  =         0.00000000
  ---------------------------------------------------
  free energy    TOTEN  =      -102.04972194 eV

  energy without entropy =     -102.02013503  energy(sigma->0) =     -102.03985963


--------------------------------------------------------------------------------------------------------




--------------------------------------- Iteration      1(  11)  ---------------------------------------


    POTLOK:  cpu time    0.0173: real time    0.0202
    SETDIJ:  cpu time    0.0022: real time    0.0022
     EDDAV:  cpu time    5.6409: real time    5.6412
       DOS:  cpu time    0.0007: real time    0.0007
    CHARGE:  cpu time    0.1531: real time    0.1532
    MIXING:  cpu time    0.0009: real time    0.0009
    --------------------------------------------
      LOOP:  cpu time    5.8152: real time    5.8184

 eigenvalue-minimisations  :  5376
 total energy-change (2. order) : 0.9010498E+01  (-0.3084242E+01)
 number of electron     160.0000089 magnetization 
 augmentation part       50.2831207 magnetization 

 Broyden mixing:
  rms(total) = 0.10249E+01    rms(broyden)= 0.10249E+01
  rms(prec ) = 0.11243E+01
  weight for this iteration     100.00

 eigenvalues of (default mixing * dielectric matrix)
  average eigenvalue GAMMA=   0.6846
  2.1693  0.7100  0.5186  0.2913  0.2913  0.1270

 Free energy of the ion-electron system (eV)
  ---------------------------------------------------
  alpha Z        PSCENC =       303.52543553
  Ewald energy   TEWEN  =     98439.91525945
  -Hartree energ DENC   =   -110317.34224923
  -exchange      EXHF   =         0.00000000
  -V(xc)+E(xc)   XCENC  =        40.26284141
  PAW double counting   =     14470.43255796   -14057.28840867
  entropy T*S    EENTRO =        -0.04898611
  eigenvalues    EBANDS =      -666.18988356
  atomic energy  EATOM  =     11693.69420960
  Solvation  Ediel_sol  =         0.00000000
  ---------------------------------------------------
  free energy    TOTEN  =       -93.03922362 eV

  energy without entropy =      -92.99023751  energy(sigma->0) =      -93.02289492


--------------------------------------------------------------------------------------------------------




--------------------------------------- Iteration      1(  12)  ---------------------------------------


    POTLOK:  cpu time    0.0174: real time    0.0189
    SETDIJ:  cpu time    0.0023: real time    0.0022
     EDDAV:  cpu time    5.8937: real time    5.8940
       DOS:  cpu time    0.0007: real time    0.0007
    CHARGE:  cpu time    0.1547: real time    0.1547
    MIXING:  cpu time    0.0022: real time    0.0022
    --------------------------------------------
      LOOP:  cpu time    6.0709: real time    6.0726

 eigenvalue-minimisations  :  5688
 total energy-change (2. order) :-0.2016628E+00  (-0.9783220E+00)
 number of electron     160.0000093 magnetization 
 augmentation part       50.2882082 magnetization 

 Broyden mixing:
  rms(total) = 0.11834E+01    rms(broyden)= 0.11833E+01
  rms(prec ) = 0.13643E+01
  weight for this iteration     100.00

 eigenvalues of (default mixing * dielectric matrix)
  average eigenvalue GAMMA=   0.6434
  2.1015  0.7075  0.7075  0.3770  0.2429  0.2429  0.1245

 Free energy of the ion-electron system (eV)
  ---------------------------------------------------
  alpha Z        PSCENC =       303.52543553
  Ewald energy   TEWEN  =     98439.91525945
  -Hartree energ DENC   =   -110312.08144787
  -exchange      EXHF   =         0.00000000
  -V(xc)+E(xc)   XCENC  =        40.32798357
  PAW double counting   =     14370.16825386   -13956.04551264
  entropy T*S    EENTRO =        -0.01834615
  eigenvalues    EBANDS =      -672.72672176
  atomic energy  EATOM  =     11693.69420960
  Solvation  Ediel_sol  =         0.00000000
  ---------------------------------------------------
  free energy    TOTEN  =       -93.24088641 eV

  energy without entropy =      -93.22254026  energy(sigma->0) =      -93.23477103


--------------------------------------------------------------------------------------------------------




--------------------------------------- Iteration      1(  13)  ---------------------------------------


    POTLOK:  cpu time    0.0218: real time    0.0229
    SETDIJ:  cpu time    0.0026: real time    0.0026
     EDDAV:  cpu time    5.7781: real time    5.7783
       DOS:  cpu time    0.0008: real time    0.0008
    CHARGE:  cpu time    0.1702: real time    0.1702
    MIXING:  cpu time    0.0011: real time    0.0011
    --------------------------------------------
      LOOP:  cpu time    5.9746: real time    5.9758

 eigenvalue-minimisations  :  5520
 total energy-change (2. order) : 0.1084213E+01  (-0.8668026E+00)
 number of electron     160.0000091 magnetization 
 augmentation part       50.1723094 magnetization 

 Broyden mixing:
  rms(total) = 0.50553E+00    rms(broyden)= 0.50544E+00
  rms(prec ) = 0.53943E+00
  weight for this iteration     100.00

 eigenvalues of (default mixing * dielectric matrix)
  average eigenvalue GAMMA=   0.6692
  2.1533  1.0299  0.6266  0.6266  0.2871  0.2871  0.2178  0.1250

 Free energy of the ion-electron system (eV)
  ---------------------------------------------------
  alpha Z        PSCENC =       303.52543553
  Ewald energy   TEWEN  =     98439.91525945
  -Hartree energ DENC   =   -110320.94015294
  -exchange      EXHF   =         0.00000000
  -V(xc)+E(xc)   XCENC  =        40.48454490
  PAW double counting   =     14335.33063765   -13920.66592834
  entropy T*S    EENTRO =        -0.03603000
  eigenvalues    EBANDS =      -663.46464951
  atomic energy  EATOM  =     11693.69420960
  Solvation  Ediel_sol  =         0.00000000
  ---------------------------------------------------
  free energy    TOTEN  =       -92.15667366 eV

  energy without entropy =      -92.12064367  energy(sigma->0) =      -92.14466366


--------------------------------------------------------------------------------------------------------




--------------------------------------- Iteration      1(  14)  ---------------------------------------


    POTLOK:  cpu time    0.0181: real time    0.0187
    SETDIJ:  cpu time    0.0022: real time    0.0022
     EDDAV:  cpu time    4.8867: real time    4.8869
       DOS:  cpu time    0.0007: real time    0.0007
    CHARGE:  cpu time    0.1567: real time    0.1567
    MIXING:  cpu time    0.0011: real time    0.0011
    --------------------------------------------
      LOOP:  cpu time    5.0656: real time    5.0663

 eigenvalue-minimisations  :  4512
 total energy-change (2. order) : 0.9686183E-01  (-0.1268821E+00)
 number of electron     160.0000093 magnetization 
 augmentation part       50.1110223 magnetization 

 Broyden mixing:
  rms(total) = 0.37772E+00    rms(broyden)= 0.37767E+00
  rms(prec ) = 0.39762E+00
  weight for this iteration     100.00

 eigenvalues of (default mixing * dielectric matrix)
  average eigenvalue GAMMA=   0.6170
  2.1123  0.9943  0.6728  0.6728  0.2897  0.2897  0.1247  0.2024  0.1944

 Free energy of the ion-electron system (eV)
  ---------------------------------------------------
  alpha Z        PSCENC =       303.52543553
  Ewald energy   TEWEN  =     98439.91525945
  -Hartree energ DENC   =   -110333.09911175
  -exchange      EXHF   =         0.00000000
  -V(xc)+E(xc)   XCENC  =        40.45625796
  PAW double counting   =     14343.38369429   -13928.94763266
  entropy T*S    EENTRO =        -0.03929067
  eigenvalues    EBANDS =      -650.94863357
  atomic energy  EATOM  =     11693.69420960
  Solvation  Ediel_sol  =         0.00000000
  ---------------------------------------------------
  free energy    TOTEN  =       -92.05981183 eV

  energy without entropy =      -92.02052116  energy(sigma->0) =      -92.04671494


--------------------------------------------------------------------------------------------------------




--------------------------------------- Iteration      1(  15)  ---------------------------------------


    POTLOK:  cpu time    0.0171: real time    0.0173
    SETDIJ:  cpu time    0.0022: real time    0.0022
     EDDAV:  cpu time    5.2148: real time    5.2149
       DOS:  cpu time    0.0007: real time    0.0007
    CHARGE:  cpu time    0.1560: real time    0.1560
    MIXING:  cpu time    0.0011: real time    0.0011
    --------------------------------------------
      LOOP:  cpu time    5.3919: real time    5.3922

 eigenvalue-minimisations  :  4872
 total energy-change (2. order) :-0.2610028E-02  (-0.5110748E-02)
 number of electron     160.0000093 magnetization 
 augmentation part       50.1017471 magnetization 

 Broyden mixing:
  rms(total) = 0.35887E+00    rms(broyden)= 0.35887E+00
  rms(prec ) = 0.38886E+00
  weight for this iteration     100.00

 eigenvalues of (default mixing * dielectric matrix)
  average eigenvalue GAMMA=   0.7205
  1.9558  1.3463  1.3463  0.6542  0.4974  0.4974  0.2815  0.2815  0.1249  0.2198

 Free energy of the ion-electron system (eV)
  ---------------------------------------------------
  alpha Z        PSCENC =       303.52543553
  Ewald energy   TEWEN  =     98439.91525945
  -Hartree energ DENC   =   -110333.92490438
  -exchange      EXHF   =         0.00000000
  -V(xc)+E(xc)   XCENC  =        40.46841073
  PAW double counting   =     14320.23795770   -13905.68146710
  entropy T*S    EENTRO =        -0.04012968
  eigenvalues    EBANDS =      -650.25719371
  atomic energy  EATOM  =     11693.69420960
  Solvation  Ediel_sol  =         0.00000000
  ---------------------------------------------------
  free energy    TOTEN  =       -92.06242186 eV

  energy without entropy =      -92.02229218  energy(sigma->0) =      -92.04904530


--------------------------------------------------------------------------------------------------------




--------------------------------------- Iteration      1(  16)  ---------------------------------------


    POTLOK:  cpu time    0.0172: real time    0.0175
    SETDIJ:  cpu time    0.0023: real time    0.0023
     EDDAV:  cpu time    5.6952: real time    5.6953
       DOS:  cpu time    0.0007: real time    0.0007
    CHARGE:  cpu time    0.1537: real time    0.1537
    MIXING:  cpu time    0.0014: real time    0.0014
    --------------------------------------------
      LOOP:  cpu time    5.8704: real time    5.8708

 eigenvalue-minimisations  :  5400
 total energy-change (2. order) : 0.3233531E-01  (-0.8318590E-02)
 number of electron     160.0000093 magnetization 
 augmentation part       50.1032677 magnetization 

 Broyden mixing:
  rms(total) = 0.21399E+00    rms(broyden)= 0.21399E+00
  rms(prec ) = 0.24565E+00
  weight for this iteration     100.00

 eigenvalues of (default mixing * dielectric matrix)
  average eigenvalue GAMMA=   0.7772
  2.0689  1.5700  1.5700  0.9337  0.5420  0.5420  0.4154  0.2809  0.2809  0.1249
  0.2201

 Free energy of the ion-electron system (eV)
  ---------------------------------------------------
  alpha Z        PSCENC =       303.52543553
  Ewald energy   TEWEN  =     98439.91525945
  -Hartree energ DENC   =   -110336.87433331
  -exchange      EXHF   =         0.00000000
  -V(xc)+E(xc)   XCENC  =        40.51546220
  PAW double counting   =     14214.96461043   -13800.08916404
  entropy T*S    EENTRO =        -0.03910951
  eigenvalues    EBANDS =      -647.64245690
  atomic energy  EATOM  =     11693.69420960
  Solvation  Ediel_sol  =         0.00000000
  ---------------------------------------------------
  free energy    TOTEN  =       -92.03008655 eV

  energy without entropy =      -91.99097704  energy(sigma->0) =      -92.01705005


--------------------------------------------------------------------------------------------------------




--------------------------------------- Iteration      1(  17)  ---------------------------------------


    POTLOK:  cpu time    0.0174: real time    0.0226
    SETDIJ:  cpu time    0.0022: real time    0.0022
     EDDAV:  cpu time    5.1635: real time    5.1636
       DOS:  cpu time    0.0007: real time    0.0007
    CHARGE:  cpu time    0.1540: real time    0.1540
    MIXING:  cpu time    0.0013: real time    0.0013
    --------------------------------------------
      LOOP:  cpu time    5.3392: real time    5.3444

 eigenvalue-minimisations  :  4800
 total energy-change (2. order) : 0.1525440E-01  (-0.2405205E-01)
 number of electron     160.0000092 magnetization 
 augmentation part       50.0967765 magnetization 

 Broyden mixing:
  rms(total) = 0.12557E+00    rms(broyden)= 0.12556E+00
  rms(prec ) = 0.14694E+00
  weight for this iteration     100.00

 eigenvalues of (default mixing * dielectric matrix)
  average eigenvalue GAMMA=   0.7514
  1.8804  1.8804  1.6053  0.8300  0.5605  0.5605  0.4680  0.1249  0.2801  0.2801
  0.2200  0.3260

 Free energy of the ion-electron system (eV)
  ---------------------------------------------------
  alpha Z        PSCENC =       303.52543553
  Ewald energy   TEWEN  =     98439.91525945
  -Hartree energ DENC   =   -110339.30818297
  -exchange      EXHF   =         0.00000000
  -V(xc)+E(xc)   XCENC  =        40.55012551
  PAW double counting   =     14185.42382777   -13770.55819057
  entropy T*S    EENTRO =        -0.03438970
  eigenvalues    EBANDS =      -645.22292677
  atomic energy  EATOM  =     11693.69420960
  Solvation  Ediel_sol  =         0.00000000
  ---------------------------------------------------
  free energy    TOTEN  =       -92.01483215 eV

  energy without entropy =      -91.98044245  energy(sigma->0) =      -92.00336891


--------------------------------------------------------------------------------------------------------




--------------------------------------- Iteration      1(  18)  ---------------------------------------


    POTLOK:  cpu time    0.0173: real time    0.0175
    SETDIJ:  cpu time    0.0022: real time    0.0022
     EDDAV:  cpu time    4.8680: real time    4.8681
       DOS:  cpu time    0.0007: real time    0.0007
    CHARGE:  cpu time    0.1543: real time    0.1543
    MIXING:  cpu time    0.0014: real time    0.0014
    --------------------------------------------
      LOOP:  cpu time    5.0439: real time    5.0442

 eigenvalue-minimisations  :  4464
 total energy-change (2. order) : 0.2840300E-02  (-0.1378623E-02)
 number of electron     160.0000092 magnetization 
 augmentation part       50.0948455 magnetization 

 Broyden mixing:
  rms(total) = 0.10749E+00    rms(broyden)= 0.10749E+00
  rms(prec ) = 0.13181E+00
  weight for this iteration     100.00

 eigenvalues of (default mixing * dielectric matrix)
  average eigenvalue GAMMA=   0.7332
  2.0416  2.0416  1.4194  0.6837  0.6134  0.6134  0.4280  0.4280  0.1249  0.2813
  0.2813  0.2202  0.3550

 Free energy of the ion-electron system (eV)
  ---------------------------------------------------
  alpha Z        PSCENC =       303.52543553
  Ewald energy   TEWEN  =     98439.91525945
  -Hartree energ DENC   =   -110340.12989057
  -exchange      EXHF   =         0.00000000
  -V(xc)+E(xc)   XCENC  =        40.57015530
  PAW double counting   =     14170.64224656   -13755.69676265
  entropy T*S    EENTRO =        -0.03553413
  eigenvalues    EBANDS =      -644.49711094
  atomic energy  EATOM  =     11693.69420960
  Solvation  Ediel_sol  =         0.00000000
  ---------------------------------------------------
  free energy    TOTEN  =       -92.01199185 eV

  energy without entropy =      -91.97645772  energy(sigma->0) =      -92.00014714


--------------------------------------------------------------------------------------------------------




--------------------------------------- Iteration      1(  19)  ---------------------------------------


    POTLOK:  cpu time    0.0175: real time    0.0177
    SETDIJ:  cpu time    0.0023: real time    0.0023
     EDDAV:  cpu time    5.5866: real time    5.5868
       DOS:  cpu time    0.0007: real time    0.0007
    CHARGE:  cpu time    0.1543: real time    0.1543
    MIXING:  cpu time    0.0014: real time    0.0014
    --------------------------------------------
      LOOP:  cpu time    5.7628: real time    5.7632

 eigenvalue-minimisations  :  5256
 total energy-change (2. order) : 0.3448469E-02  (-0.4971061E-03)
 number of electron     160.0000092 magnetization 
 augmentation part       50.0938688 magnetization 

 Broyden mixing:
  rms(total) = 0.84605E-01    rms(broyden)= 0.84604E-01
  rms(prec ) = 0.99991E-01
  weight for this iteration     100.00

 eigenvalues of (default mixing * dielectric matrix)
  average eigenvalue GAMMA=   0.8188
  2.2371  2.2371  1.3683  1.1589  1.1589  0.6450  0.5277  0.5277  0.1249  0.2808
  0.2808  0.3864  0.2201  0.3099

 Free energy of the ion-electron system (eV)
  ---------------------------------------------------
  alpha Z        PSCENC =       303.52543553
  Ewald energy   TEWEN  =     98439.91525945
  -Hartree energ DENC   =   -110340.31479859
  -exchange      EXHF   =         0.00000000
  -V(xc)+E(xc)   XCENC  =        40.57872183
  PAW double counting   =     14168.06340044   -13753.07729289
  entropy T*S    EENTRO =        -0.03552395
  eigenvalues    EBANDS =      -644.35795478
  atomic energy  EATOM  =     11693.69420960
  Solvation  Ediel_sol  =         0.00000000
  ---------------------------------------------------
  free energy    TOTEN  =       -92.00854338 eV

  energy without entropy =      -91.97301942  energy(sigma->0) =      -91.99670206


--------------------------------------------------------------------------------------------------------




--------------------------------------- Iteration      1(  20)  ---------------------------------------


    POTLOK:  cpu time    0.0177: real time    0.0179
    SETDIJ:  cpu time    0.0022: real time    0.0022
     EDDAV:  cpu time    5.5286: real time    5.5287
       DOS:  cpu time    0.0007: real time    0.0007
    CHARGE:  cpu time    0.1548: real time    0.1548
    MIXING:  cpu time    0.0018: real time    0.0018
    --------------------------------------------
      LOOP:  cpu time    5.7059: real time    5.7062

 eigenvalue-minimisations  :  5184
 total energy-change (2. order) : 0.3305065E-02  (-0.1078031E-02)
 number of electron     160.0000092 magnetization 
 augmentation part       50.0878856 magnetization 

 Broyden mixing:
  rms(total) = 0.45003E-01    rms(broyden)= 0.45001E-01
  rms(prec ) = 0.50565E-01
  weight for this iteration     100.00

 eigenvalues of (default mixing * dielectric matrix)
  average eigenvalue GAMMA=   0.8018
  2.1338  1.7459  1.7459  1.2254  1.2254  0.7813  0.5357  0.5357  0.4969  0.1249
  0.2808  0.2808  0.2201  0.3676  0.3266

 Free energy of the ion-electron system (eV)
  ---------------------------------------------------
  alpha Z        PSCENC =       303.52543553
  Ewald energy   TEWEN  =     98439.91525945
  -Hartree energ DENC   =   -110341.43967836
  -exchange      EXHF   =         0.00000000
  -V(xc)+E(xc)   XCENC  =        40.59895886
  PAW double counting   =     14177.92573490   -13762.88449395
  entropy T*S    EENTRO =        -0.03580152
  eigenvalues    EBANDS =      -643.30486282
  atomic energy  EATOM  =     11693.69420960
  Solvation  Ediel_sol  =         0.00000000
  ---------------------------------------------------
  free energy    TOTEN  =       -92.00523831 eV

  energy without entropy =      -91.96943680  energy(sigma->0) =      -91.99330447


--------------------------------------------------------------------------------------------------------




--------------------------------------- Iteration      1(  21)  ---------------------------------------


    POTLOK:  cpu time    0.0179: real time    0.0187
    SETDIJ:  cpu time    0.0023: real time    0.0023
     EDDAV:  cpu time    5.1433: real time    5.1434
       DOS:  cpu time    0.0007: real time    0.0007
    CHARGE:  cpu time    0.1545: real time    0.1545
    MIXING:  cpu time    0.0018: real time    0.0018
    --------------------------------------------
      LOOP:  cpu time    5.3205: real time    5.3214

 eigenvalue-minimisations  :  4728
 total energy-change (2. order) :-0.1391466E-03  (-0.4543577E-03)
 number of electron     160.0000092 magnetization 
 augmentation part       50.0868870 magnetization 

 Broyden mixing:
  rms(total) = 0.51347E-01    rms(broyden)= 0.51346E-01
  rms(prec ) = 0.63867E-01
  weight for this iteration     100.00

 eigenvalues of (default mixing * dielectric matrix)
  average eigenvalue GAMMA=   0.8515
  2.2947  1.9449  1.9449  1.3024  1.3024  0.7677  0.7677  0.6502  0.5250  0.5250
  0.1249  0.2808  0.2808  0.2201  0.3797  0.3135

 Free energy of the ion-electron system (eV)
  ---------------------------------------------------
  alpha Z        PSCENC =       303.52543553
  Ewald energy   TEWEN  =     98439.91525945
  -Hartree energ DENC   =   -110341.91738613
  -exchange      EXHF   =         0.00000000
  -V(xc)+E(xc)   XCENC  =        40.59883866
  PAW double counting   =     14190.09923176   -13775.08763938
  entropy T*S    EENTRO =        -0.03531447
  eigenvalues    EBANDS =      -642.79801249
  atomic energy  EATOM  =     11693.69420960
  Solvation  Ediel_sol  =         0.00000000
  ---------------------------------------------------
  free energy    TOTEN  =       -92.00537746 eV

  energy without entropy =      -91.97006299  energy(sigma->0) =      -91.99360597


--------------------------------------------------------------------------------------------------------




--------------------------------------- Iteration      1(  22)  ---------------------------------------


    POTLOK:  cpu time    0.0180: real time    0.0205
    SETDIJ:  cpu time    0.0023: real time    0.0023
     EDDAV:  cpu time    6.0735: real time    6.0736
       DOS:  cpu time    0.0007: real time    0.0007
    CHARGE:  cpu time    0.1549: real time    0.1549
    MIXING:  cpu time    0.0018: real time    0.0018
    --------------------------------------------
      LOOP:  cpu time    6.2512: real time    6.2538

 eigenvalue-minimisations  :  5808
 total energy-change (2. order) : 0.1488816E-02  (-0.2316624E-03)
 number of electron     160.0000092 magnetization 
 augmentation part       50.0866013 magnetization 

 Broyden mixing:
  rms(total) = 0.30482E-01    rms(broyden)= 0.30481E-01
  rms(prec ) = 0.37304E-01
  weight for this iteration     100.00

 eigenvalues of (default mixing * dielectric matrix)
  average eigenvalue GAMMA=   0.9346
  2.7905  2.6976  1.6545  1.6545  1.3101  0.9631  0.9631  0.5283  0.5283  0.6017
  0.6017  0.1249  0.2808  0.2808  0.2201  0.3756  0.3130

 Free energy of the ion-electron system (eV)
  ---------------------------------------------------
  alpha Z        PSCENC =       303.52543553
  Ewald energy   TEWEN  =     98439.91525945
  -Hartree energ DENC   =   -110342.72820410
  -exchange      EXHF   =         0.00000000
  -V(xc)+E(xc)   XCENC  =        40.60535669
  PAW double counting   =     14192.84753492   -13777.81561941
[...]
     80      -1.0798      2.06255
     81      -1.0530      2.07007
     82      -1.0242      2.06812
     83      -0.9971      2.05018
     84      -0.9855      2.03594
     85      -0.8841      1.66400
     86      -0.8542      1.46141
     87      -0.1952     -0.00018
     88       0.0389     -0.00000
     89       0.0960     -0.00000
     90       1.7884     -0.00000
     91       2.1022     -0.00000
     92       2.1390     -0.00000
     93       3.9300     -0.00000
     94       4.0004     -0.00000
     95       4.3311     -0.00000
     96       4.4277     -0.00000

 k-point    19 :       0.4375    0.4375    0.0000
  band No.  band energies     occupation 
      1      -8.7245      2.00000
      2      -8.0552      2.00000
      3      -7.5925      2.00000
      4      -7.1993      2.00000
      5      -6.7286      2.00000
      6      -6.5787      2.00000
      7      -6.5740      2.00000
      8      -6.5583      2.00000
      9      -6.4622      2.00000
     10      -6.4595      2.00000
     11      -6.4359      2.00000
     12      -6.2138      2.00000
     13      -6.1021      2.00000
     14      -6.0655      2.00000
     15      -5.9718      2.00000
     16      -5.8148      2.00000
     17      -5.8116      2.00000
     18      -5.6132      2.00000
     19      -5.5638      2.00000
     20      -5.4541      2.00000
     21      -5.3299      2.00000
     22      -5.3020      2.00000
     23      -5.2580      2.00000
     24      -5.1272      2.00000
     25      -5.0819      2.00000
     26      -5.0189      2.00000
     27      -4.9811      2.00000
     28      -4.7952      2.00000
     29      -4.7573      2.00000
     30      -4.6879      2.00000
     31      -4.6376      2.00000
     32      -4.5335      2.00000
     33      -4.4739      2.00000
     34      -4.4680      2.00000
     35      -4.3573      2.00000
     36      -4.2223      2.00000
     37      -4.1063      2.00000
     38      -4.0532      2.00000
     39      -3.9680      2.00000
     40      -3.8775      2.00000
     41      -3.7805      2.00000
     42      -3.7231      2.00000
     43      -3.7154      2.00000
     44      -3.6643      2.00000
     45      -3.6222      2.00000
     46      -3.6195      2.00000
     47      -3.5761      2.00000
     48      -3.4990      2.00000
     49      -3.4941      2.00000
     50      -3.4260      2.00000
     51      -3.3121      2.00000
     52      -3.2522      2.00000
     53      -3.2016      2.00000
     54      -3.0027      2.00000
     55      -2.9758      2.00000
     56      -2.9567      2.00000
     57      -2.8770      2.00000
     58      -2.7610      2.00000
     59      -2.7215      2.00000
     60      -2.5843      2.00000
     61      -2.5116      2.00000
     62      -2.3857      2.00000
     63      -2.3804      2.00000
     64      -2.2853      2.00000
     65      -2.2456      2.00000
     66      -2.1892      2.00000
     67      -2.0898      2.00000
     68      -2.0740      2.00000
     69      -2.0319      2.00000
     70      -1.9956      2.00000
     71      -1.8680      2.00000
     72      -1.8321      2.00000
     73      -1.7914      2.00000
     74      -1.5755      2.00000
     75      -1.3710      2.00038
     76      -1.2516      2.00603
     77      -1.1912      2.01759
     78      -1.1141      2.04755
     79      -0.8360      1.32166
     80      -0.7696      0.76888
     81      -0.7561      0.66045
     82      -0.7377      0.52027
     83      -0.6311      0.00524
     84      -0.4776     -0.04631
     85      -0.4710     -0.04328
     86      -0.3348     -0.00515
     87       1.1609     -0.00000
     88       1.1948     -0.00000
     89       1.2879     -0.00000
     90       1.7589     -0.00000
     91       1.7874     -0.00000
     92       1.8201     -0.00000
     93       2.8622     -0.00000
     94       2.8857     -0.00000
     95       3.2876     -0.00000
     96       4.3728     -0.00000

 k-point    20 :      -0.4375    0.4375    0.0000
  band No.  band energies     occupation 
      1      -8.2959      2.00000
      2      -8.2717      2.00000
      3      -7.2986      2.00000
      4      -7.2390      2.00000
      5      -6.8271      2.00000
      6      -6.5689      2.00000
      7      -6.4986      2.00000
      8      -6.4392      2.00000
      9      -6.3510      2.00000
     10      -6.2646      2.00000
     11      -6.1994      2.00000
     12      -6.1322      2.00000
     13      -6.1244      2.00000
     14      -5.9432      2.00000
     15      -5.7942      2.00000
     16      -5.6978      2.00000
     17      -5.6918      2.00000
     18      -5.6668      2.00000
     19      -5.5447      2.00000
     20      -5.4440      2.00000
     21      -5.3470      2.00000
     22      -5.2690      2.00000
     23      -5.2637      2.00000
     24      -5.1990      2.00000
     25      -5.1474      2.00000
     26      -5.0741      2.00000
     27      -5.0404      2.00000
     28      -5.0068      2.00000
     29      -4.7893      2.00000
     30      -4.6919      2.00000
     31      -4.6523      2.00000
     32      -4.5937      2.00000
     33      -4.5557      2.00000
     34      -4.4421      2.00000
     35      -4.4295      2.00000
     36      -4.2905      2.00000
     37      -4.2165      2.00000
     38      -4.1446      2.00000
     39      -4.1122      2.00000
     40      -4.0796      2.00000
     41      -3.9868      2.00000
     42      -3.9468      2.00000
     43      -3.8075      2.00000
     44      -3.7104      2.00000
     45      -3.6843      2.00000
     46      -3.6480      2.00000
     47      -3.6311      2.00000
     48      -3.5985      2.00000
     49      -3.5739      2.00000
     50      -3.4193      2.00000
     51      -3.3923      2.00000
     52      -3.2640      2.00000
     53      -3.1230      2.00000
     54      -2.9729      2.00000
     55      -2.9392      2.00000
     56      -2.9091      2.00000
     57      -2.8578      2.00000
     58      -2.7678      2.00000
     59      -2.6771      2.00000
     60      -2.5745      2.00000
     61      -2.4951      2.00000
     62      -2.4752      2.00000
     63      -2.4054      2.00000
     64      -2.3016      2.00000
     65      -2.2067      2.00000
     66      -2.1492      2.00000
     67      -2.1148      2.00000
     68      -2.0710      2.00000
     69      -1.9518      2.00000
     70      -1.8820      2.00000
     71      -1.8532      2.00000
     72      -1.7706      2.00000
     73      -1.7055      2.00000
     74      -1.5847      2.00000
     75      -1.4042      2.00015
     76      -1.2775      2.00355
     77      -1.2364      2.00806
     78      -1.1391      2.03627
     79      -0.9554      1.97555
     80      -0.8881      1.68835
     81      -0.8412      1.36260
     82      -0.7702      0.77379
     83      -0.6185     -0.02038
     84      -0.5976     -0.04978
     85      -0.4338     -0.02760
     86      -0.3744     -0.01088
     87       0.2159     -0.00000
     88       0.5166     -0.00000
     89       1.4718     -0.00000
     90       1.5545     -0.00000
     91       1.5926     -0.00000
     92       2.3642     -0.00000
     93       3.1805     -0.00000
     94       3.4365     -0.00000
     95       3.9555     -0.00000
     96       4.0007     -0.00000


--------------------------------------------------------------------------------------------------------


 soft charge-density along one line, spin component           1
         0         1         2         3         4         5         6         7         8         9
 total charge-density along one line
 
 pseudopotential strength for first ion, spin component:           1
 -8.080   0.000   0.000  -0.006   0.000  -8.226   0.000   0.000
  0.000  -8.002  -0.000   0.000  -0.006   0.000  -8.149  -0.000
  0.000  -0.000  -7.993  -0.000   0.000   0.000  -0.000  -8.141
 -0.006   0.000  -0.000  -8.002   0.000  -0.006   0.000  -0.000
  0.000  -0.006   0.000   0.000  -8.080   0.000  -0.006   0.000
 -8.226   0.000   0.000  -0.006   0.000  -8.355   0.000   0.000
  0.000  -8.149  -0.000   0.000  -0.006   0.000  -8.280  -0.000
  0.000  -0.000  -8.141  -0.000   0.000   0.000  -0.000  -8.272
 -0.006   0.000  -0.000  -8.149   0.000  -0.006   0.000  -0.000
  0.000  -0.006   0.000   0.000  -8.226   0.000  -0.006   0.000
  0.000  -0.000  -0.025  -0.000   0.000   0.000  -0.000  -0.025
  0.000  -0.000  -0.036  -0.000   0.000   0.000  -0.000  -0.036
 -0.000  -0.001   0.000  -0.000   0.000  -0.000  -0.000  -0.000
 -0.000  -0.000  -0.003  -0.000  -0.000  -0.000  -0.000  -0.002
  0.000  -0.000   0.000  -0.001  -0.000   0.000  -0.000  -0.000
 -0.000   0.001   0.000  -0.000   0.001  -0.000   0.001   0.000
 -0.000  -0.000  -0.001  -0.000  -0.000  -0.000  -0.000  -0.001
  0.001  -0.000   0.000   0.001  -0.000   0.001  -0.000   0.000
 total augmentation occupancy for first ion, spin component:           1
  4.814   0.000  -0.000  -0.040   0.000  -2.988   0.000   0.000  -0.050  -0.000   0.000   0.000   0.000   0.000  -0.053  -0.000
  0.000   4.898   0.000   0.000  -0.040   0.000  -2.612   0.000  -0.000  -0.048   0.000   0.000  -0.229   0.000  -0.000   0.012
 -0.000   0.000   5.500   0.000  -0.000   0.000   0.000  -3.308   0.000   0.000   0.835  -0.069   0.000  -0.384   0.000  -0.000
 -0.040   0.000   0.000   4.898   0.000  -0.048  -0.000   0.000  -2.612  -0.000   0.000  -0.000  -0.000   0.000  -0.229   0.000
  0.000  -0.040  -0.000   0.000   4.814   0.000  -0.050   0.000  -0.000  -2.988  -0.000   0.000  -0.053   0.000  -0.000   0.002
 -2.988   0.000   0.000  -0.048  -0.000   3.023  -0.000  -0.000   0.116   0.000   0.000  -0.000  -0.000  -0.000   0.049   0.000
  0.000  -2.612   0.000  -0.000  -0.050  -0.000   2.289  -0.000   0.000   0.116   0.000   0.000   0.213   0.000   0.000  -0.010
  0.000   0.000  -3.308   0.000   0.000  -0.000  -0.000   3.061  -0.000  -0.000  -0.761   0.080  -0.000   0.383  -0.000   0.000
 -0.050  -0.000   0.000  -2.612  -0.000   0.116   0.000  -0.000   2.289   0.000   0.000   0.000   0.000   0.000   0.213  -0.000
  0.000  -0.048   0.000  -0.000  -2.988   0.000   0.116  -0.000   0.000   3.023   0.000  -0.000   0.049  -0.000   0.000  -0.002
 -0.000   0.000   0.835   0.000  -0.000   0.000   0.000  -0.761  -0.000   0.000   2.553  -0.582   0.000   0.172   0.000  -0.000
  0.000   0.000  -0.069  -0.000   0.000  -0.000   0.000   0.080   0.000  -0.000  -0.582   0.173   0.000  -0.078   0.000   0.000
  0.000  -0.229   0.000  -0.000  -0.053  -0.000   0.213  -0.000   0.000   0.049   0.000   0.000   0.235   0.000   0.000  -0.007
  0.000   0.000  -0.384   0.000   0.000  -0.000   0.000   0.383   0.000  -0.000   0.172  -0.078  -0.000   0.133  -0.000  -0.000
 -0.053  -0.000   0.000  -0.229  -0.000   0.049   0.000  -0.000   0.213   0.000   0.000   0.000   0.000  -0.000   0.235  -0.000
 -0.000   0.012  -0.000   0.000   0.002   0.000  -0.010   0.000   0.000  -0.002  -0.000   0.000  -0.007  -0.000  -0.000   0.000
 -0.000   0.000   0.009  -0.000  -0.000   0.000  -0.000  -0.011   0.000   0.000  -0.009   0.003   0.000  -0.004   0.000   0.000
  0.002   0.000  -0.000   0.012   0.000  -0.002  -0.000   0.000  -0.010  -0.000   0.000   0.000   0.000   0.000  -0.007   0.000


------------------------ aborting loop because EDIFF is reached ----------------------------------------



 DIPCOR: dipole corrections for dipol
 direction  3 min pos   277,
 dipolmoment           0.000000      0.000000      0.023489 electrons x Angstroem
 Tr[quadrupol]      -951.204547

 energy correction for charged system         0.000000 eV
 dipol+quadrupol energy correction            0.000061 eV
 added-field ion interaction          0.000000 eV  (added to PSCEN)

 
  *************** adding dipol energy to TOTEN NOW **************** 
    CHARGE:  cpu time    0.1556: real time    0.1556
    FORLOC:  cpu time    0.0033: real time    0.0033
    FORNL :  cpu time    1.7723: real time    1.7724
    STRESS:  cpu time    5.9183: real time    5.9185
    FORCOR:  cpu time    0.0193: real time    0.0193
    FORHAR:  cpu time    0.0068: real time    0.0068
    MIXING:  cpu time    0.0023: real time    0.0023
    OFIELD:  cpu time    0.0000: real time    0.0000

  FORCE on cell =-STRESS in cart. coord.  units (eV):
  Direction    XX          YY          ZZ          XY          YZ          ZX
  --------------------------------------------------------------------------------------
  Alpha Z   303.52544   303.52544   303.52544
  Ewald  107332.19533107332.19533************     0.00000    -0.00000    -0.00000
  Hartree109644.86756109644.86756************    -0.00000     0.00000     0.00000
  E(xc)    -709.71411  -709.71413  -714.43318     0.00001    -0.00000    -0.00001
  Local  ************************222321.30123     0.00104    -0.00004    -0.00007
  n-local    95.93971    22.42994    41.58349   -21.32538    -4.55258     2.55031
  augment   834.52107   834.52197   862.19271    -0.00078     0.00000     0.00000
  Kinetic  2294.05622  2270.71469  2353.11320    -6.31307    -5.80690     3.88008
  Fock        0.00000     0.00000     0.00000     0.00000     0.00000     0.00000
  -------------------------------------------------------------------------------------
  Total     -11.17627   -11.17627    -0.54525     0.00000    -0.00000     0.00000
  in kB     -21.72765   -21.72765    -1.06002     0.00000    -0.00000     0.00000
  external pressure =      -14.84 kB  Pullay stress =        0.00 kB


 VOLUME and BASIS-vectors are now :
 -----------------------------------------------------------------------------
  energy-cutoff  :      350.00
  volume of cell :      824.13
      direct lattice vectors                 reciprocal lattice vectors
     5.557859300  0.000000000  0.000000000     0.179925390 -0.103879972  0.000000000
     2.778929650  4.813247345  0.000000000     0.000000000  0.207759944  0.000000000
     0.000000000  0.000000000 30.806959674     0.000000000  0.000000000  0.032460198

  length of vectors
     5.557859300  5.557859300 30.806959674     0.207759944  0.207759944  0.032460198


 FORCES acting on ions
    electron-ion (+dipol)            ewald-force                    non-local-force                 convergence-correction
 -----------------------------------------------------------------------------------------------
   0.972E-06 0.561E-06 0.309E+04   -.958E-12 -.634E-12 -.309E+04   0.211E-17 0.149E-18 -.426E+00   0.241E-09 0.139E-09 0.797E-02
   0.804E-06 0.556E-01 0.281E+04   -.972E-12 -.565E-12 -.281E+04   -.867E-18 -.810E-01 -.108E+01   0.468E-09 0.269E-03 0.716E-02
   0.482E-01 -.278E-01 0.281E+04   -.959E-12 -.572E-12 -.281E+04   -.701E-01 0.405E-01 -.108E+01   0.233E-03 -.135E-03 0.716E-02
   -.482E-01 -.278E-01 0.281E+04   -.931E-12 -.600E-12 -.281E+04   0.701E-01 0.405E-01 -.108E+01   -.233E-03 -.135E-03 0.716E-02
   -.451E+01 -.260E+01 0.895E+03   0.465E+01 0.268E+01 -.894E+03   -.830E-02 -.479E-02 -.306E+00   -.584E-03 -.337E-03 0.372E-01
   0.451E+01 -.260E+01 0.895E+03   -.465E+01 0.268E+01 -.894E+03   0.830E-02 -.479E-02 -.306E+00   0.584E-03 -.337E-03 0.372E-01
   0.128E-05 0.521E+01 0.895E+03   0.270E-11 -.536E+01 -.894E+03   -.130E-17 0.958E-02 -.306E+00   -.182E-09 0.674E-03 0.372E-01
   0.126E-05 0.725E-06 0.900E+03   0.307E-11 0.189E-11 -.900E+03   -.651E-18 0.000E+00 -.315E+00   -.225E-09 -.130E-09 0.378E-01
   -.103E-05 0.503E+01 -.100E+04   -.315E-11 -.525E+01 0.100E+04   0.867E-18 0.425E-01 0.366E+00   -.437E-09 -.212E-02 0.531E-01
   -.103E-05 -.596E-06 -.998E+03   -.277E-11 -.166E-11 0.998E+03   -.119E-16 0.325E-18 0.288E+00   -.501E-10 -.289E-10 0.510E-01
   -.436E+01 -.252E+01 -.100E+04   0.455E+01 0.263E+01 0.100E+04   -.368E-01 -.213E-01 0.366E+00   0.184E-02 0.106E-02 0.531E-01
   0.436E+01 -.252E+01 -.100E+04   -.455E+01 0.263E+01 0.100E+04   0.368E-01 -.213E-01 0.366E+00   -.184E-02 0.106E-02 0.531E-01
   -.920E-06 0.383E-02 -.285E+04   0.931E-12 0.551E-12 0.285E+04   -.434E-17 -.627E-01 0.709E+00   -.242E-09 0.190E-03 0.246E-01
   0.332E-02 -.192E-02 -.285E+04   0.956E-12 0.535E-12 0.285E+04   -.543E-01 0.313E-01 0.709E+00   0.164E-03 -.950E-04 0.246E-01
   -.332E-02 -.192E-02 -.285E+04   0.958E-12 0.520E-12 0.285E+04   0.543E-01 0.313E-01 0.709E+00   -.164E-03 -.950E-04 0.246E-01
   0.587E-06 0.339E-06 -.256E+04   0.824E-12 0.482E-12 0.256E+04   -.867E-18 -.217E-18 0.118E+00   -.268E-09 -.155E-09 0.227E-01
 -----------------------------------------------------------------------------------------------
   0.142E-05 0.821E-06 0.787E+00   0.165E-13 0.177E-13 0.409E-11   -.147E-16 -.716E-17 -.128E+01   -.178E-08 -.103E-08 0.485E+00
 
 
 POSITION                                       TOTAL-FORCE (eV/Angst)
 -----------------------------------------------------------------------------------
      0.00000      0.00000     12.00000        -0.000000     -0.000000     -1.157182
      2.77893      0.00000     12.00000        -0.000000     -0.025088      0.056231
      1.38946      2.40662     12.00000        -0.021726      0.012544      0.056231
      4.16839      2.40662     12.00000         0.021726      0.012544      0.056231
      1.38946      0.80221     14.31554         0.125622      0.072528      0.194040
      4.16839      0.80221     14.31554        -0.125622      0.072528      0.194040
      2.77893      3.20883     14.31554        -0.000000     -0.145056      0.194040
      5.55786      3.20883     14.31554        -0.000000      0.000000      0.181334
      5.55786      1.60442     16.61120         0.000000     -0.175029      0.307966
      2.77893      1.60442     16.61120        -0.000000      0.000000      0.218329
      6.94732      4.01104     16.61120         0.151579      0.087514      0.307966
      4.16839      4.01104     16.61120        -0.151579      0.087514      0.307966
      2.77893      0.00000     18.94198        -0.000000     -0.058648      0.088933
      1.38946      2.40662     18.94198        -0.050790      0.029324      0.088933
      4.16839      2.40662     18.94198         0.050790      0.029324      0.088933
      0.00000      0.00000     18.94198        -0.000000      0.000000     -1.183989
 -----------------------------------------------------------------------------------
    total drift:                                0.000001      0.000001     -0.004285


--------------------------------------------------------------------------------------------------------



  FREE ENERGIE OF THE ION-ELECTRON SYSTEM (eV)
  ---------------------------------------------------
  free  energy   TOTEN  =       -92.00298273 eV

  energy  without entropy=      -91.96662382  energy(sigma->0) =      -91.99086309
 


--------------------------------------------------------------------------------------------------------


    POTLOK:  cpu time    0.0202: real time    0.0202


--------------------------------------------------------------------------------------------------------


     LOOP+:  cpu time  170.5724: real time  170.6414
    4ORBIT:  cpu time    0.0000: real time    0.0000

 total amount of memory used by VASP MPI-rank0   165803. kBytes
=======================================================================

   base      :      30000. kBytes
   nonl-proj :     109741. kBytes
   fftplans  :       2015. kBytes
   grid      :       7641. kBytes
   one-center:        248. kBytes
   wavefun   :      16158. kBytes
 
  
  
 General timing and accounting informations for this job:
 ========================================================
  
                  Total CPU time used (sec):      172.941
                            User time (sec):      172.145
                          System time (sec):        0.796
                         Elapsed time (sec):      173.239
  
                   Maximum memory used (kb):      220248.
                   Average memory used (kb):           0.
  
                          Minor page faults:        73953
                          Major page faults:           24
                 Voluntary context switches:          732
