<?xml version="1.0" encoding="ISO-8859-1"?>
<modeling>
 <generator>
  <i name="program" type="string">vasp </i>
  <i name="version" type="string">5.4.4.18Apr17-6-g9f103f2a35  </i>
  <i name="subversion" type="string">(build Apr 28 2017 10:53:45) complex            parallel </i>
  <i name="platform" type="string">LinuxIFC </i>
  <i name="date" type="string">2020 02 17 </i>
  <i name="time" type="string">09:19:46 </i>
 </generator>
 <incar>
  <i type="string" name="PREC">normal</i>
  <i type="int" name="ISPIN">     1</i>
  <i type="int" name="IBRION">     2</i>
  <i name="EDIFF">      0.00001000</i>
  <i name="EDIFFG">     -0.05000000</i>
  <i type="int" name="NSW">     0</i>
  <i name="ENCUT">    350.00000000</i>
  <i type="logical" name="LWAVE"> F  </i>
  <i type="logical" name="LCHARG"> F  </i>
  <v type="int" name="KPOINT_BSE">    -1     0     0     0</v>
  <i type="string" name="GGA"> PE</i>
  <i type="int" name="IDIPOL">     3</i>
 </incar>
 <structure name="primitive_cell" >
  <crystal>
   <varray name="basis" >
    <v>       5.55785930       0.00000000       0.00000000 </v>
    <v>       2.77892965       4.81324734       0.00000000 </v>
    <v>       0.00000000       0.00000000      30.80695967 </v>
   </varray>
   <i name="volume">    824.12780743 </i>
   <varray name="rec_basis" >
    <v>       0.17992539      -0.10387997       0.00000000 </v>
    <v>       0.00000000       0.20775994       0.00000000 </v>
    <v>       0.00000000       0.00000000       0.03246020 </v>
   </varray>
  </crystal>
  <varray name="positions" >
   <v>       0.00000000       0.00000000       0.38952237 </v>
   <v>       0.00000000      -0.50000000       0.38952237 </v>
   <v>      -0.50000000      -0.50000000       0.38952237 </v>
   <v>      -0.50000000       0.00000000       0.38952237 </v>
   <v>       0.16666667       0.16666667       0.46468540 </v>
   <v>       0.16666667      -0.33333333       0.46468540 </v>
   <v>      -0.33333333       0.16666667       0.46468540 </v>
   <v>      -0.33333333      -0.33333333       0.46468540 </v>
   <v>      -0.16666667      -0.16666667      -0.46079704 </v>
   <v>      -0.16666667       0.33333333      -0.46079704 </v>
   <v>       0.33333333      -0.16666667      -0.46079704 </v>
   <v>       0.33333333       0.33333333      -0.46079704 </v>
   <v>       0.00000000       0.00000000      -0.38513957 </v>
   <v>      -0.50000000       0.00000000      -0.38513957 </v>
   <v>       0.00000000      -0.50000000      -0.38513957 </v>
   <v>      -0.50000000      -0.50000000      -0.38513957 </v>
  </varray>
 </structure>
 <varray name="primitive_index" >
  <v type="int" >        1 </v>
  <v type="int" >        3 </v>
  <v type="int" >        4 </v>
  <v type="int" >        2 </v>
  <v type="int" >        5 </v>
  <v type="int" >        7 </v>
  <v type="int" >        6 </v>
  <v type="int" >        8 </v>
  <v type="int" >       11 </v>
  <v type="int" >        9 </v>
  <v type="int" >       12 </v>
  <v type="int" >       10 </v>
  <v type="int" >       16 </v>
  <v type="int" >       13 </v>
  <v type="int" >       14 </v>
  <v type="int" >       15 </v>
 </varray>
 <kpoints>
  <generation param="Monkhorst-Pack">
   <v type="int" name="divisions">       8        8        1 </v>
   <v name="usershift">      0.00000000       0.00000000       0.00000000 </v>
   <v name="genvec1">      0.12500000       0.00000000       0.00000000 </v>
   <v name="genvec2">      0.00000000       0.12500000       0.00000000 </v>
   <v name="genvec3">      0.00000000       0.00000000       1.00000000 </v>
   <v name="shift">      0.50000000       0.50000000       0.00000000 </v>
  </generation>
  <varray name="kpointlist" >
   <v>       0.06250000       0.06250000       0.00000000 </v>
   <v>       0.18750000       0.06250000       0.00000000 </v>
   <v>       0.31250000       0.06250000       0.00000000 </v>
   <v>       0.43750000       0.06250000       0.00000000 </v>
   <v>      -0.43750000       0.06250000       0.00000000 </v>
   <v>      -0.31250000       0.06250000       0.00000000 </v>
   <v>      -0.18750000       0.06250000       0.00000000 </v>
   <v>      -0.06250000       0.06250000       0.00000000 </v>
   <v>       0.18750000       0.18750000       0.00000000 </v>
   <v>       0.31250000       0.18750000       0.00000000 </v>
   <v>       0.43750000       0.18750000       0.00000000 </v>
   <v>      -0.43750000       0.18750000       0.00000000 </v>
   <v>      -0.31250000       0.18750000       0.00000000 </v>
   <v>      -0.18750000       0.18750000       0.00000000 </v>
   <v>       0.31250000       0.31250000       0.00000000 </v>
   <v>       0.43750000       0.31250000       0.00000000 </v>
   <v>      -0.43750000       0.31250000       0.00000000 </v>
   <v>      -0.31250000       0.31250000       0.00000000 </v>
   <v>       0.43750000       0.43750000       0.00000000 </v>
   <v>      -0.43750000       0.43750000       0.00000000 </v>
  </varray>
  <varray name="weights" >
   <v>       0.03125000 </v>
   <v>       0.06250000 </v>
   <v>       0.06250000 </v>
   <v>       0.06250000 </v>
   <v>       0.06250000 </v>
   <v>       0.06250000 </v>
   <v>       0.06250000 </v>
   <v>       0.03125000 </v>
   <v>       0.03125000 </v>
   <v>       0.06250000 </v>
   <v>       0.06250000 </v>
   <v>       0.06250000 </v>
   <v>       0.06250000 </v>
   <v>       0.03125000 </v>
   <v>       0.03125000 </v>
   <v>       0.06250000 </v>
   <v>       0.06250000 </v>
   <v>       0.03125000 </v>
   <v>       0.03125000 </v>
   <v>       0.03125000 </v>
  </varray>
 </kpoints>
 <parameters>
  <separator name="general" >
   <i type="string" name="SYSTEM">unknown system</i>
   <i type="logical" name="LCOMPAT"> F  </i>
  </separator>
  <separator name="electronic" >
   <i type="string" name="PREC">normal</i>
   <i name="ENMAX">    350.00000000</i>
   <i name="ENAUG">    358.96600000</i>
   <i name="EDIFF">      0.00001000</i>
   <i type="int" name="IALGO">    38</i>
   <i type="int" name="IWAVPR">    10</i>
   <i type="int" name="NBANDS">    96</i>
   <i name="NELECT">    160.00000000</i>
   <i type="int" name="TURBO">     0</i>
   <i type="int" name="IRESTART">     0</i>
   <i type="int" name="NREBOOT">     0</i>
   <i type="int" name="NMIN">     0</i>
   <i name="EREF">      0.00000000</i>
   <separator name="electronic smearing" >
    <i type="int" name="ISMEAR">     1</i>
    <i name="SIGMA">      0.20000000</i>
    <i name="KSPACING">      0.50000000</i>
    <i type="logical" name="KGAMMA"> T  </i>
   </separator>
   <separator name="electronic projectors" >
    <i type="logical" name="LREAL"> F  </i>
    <v name="ROPT">      0.00000000      0.00000000      0.00000000</v>
    <i type="int" name="LMAXPAW">  -100</i>
    <i type="int" name="LMAXMIX">     2</i>
    <i type="logical" name="NLSPLINE"> F  </i>
   </separator>
   <separator name="electronic startup" >
    <i type="int" name="ISTART">     0</i>
    <i type="int" name="ICHARG">     2</i>
    <i type="int" name="INIWAV">     1</i>
   </separator>
   <separator name="electronic spin" >
    <i type="int" name="ISPIN">     1</i>
    <i type="logical" name="LNONCOLLINEAR"> F  </i>
    <v name="MAGMOM">      1.00000000      1.00000000      1.00000000      1.00000000      1.00000000      1.00000000      1.00000000      1.00000000      1.00000000      1.00000000      1.00000000      1.00000000      1.00000000      1.00000000      1.00000000      1.00000000</v>
    <i name="NUPDOWN">     -1.00000000</i>
    <i type="logical" name="LSORBIT"> F  </i>
    <v name="SAXIS">      0.00000000      0.00000000      1.00000000</v>
    <i type="logical" name="LSPIRAL"> F  </i>
    <v name="QSPIRAL">      0.00000000      0.00000000      0.00000000</v>
    <i type="logical" name="LZEROZ"> F  </i>
   </separator>
   <separator name="electronic exchange-correlation" >
    <i type="logical" name="LASPH"> F  </i>
    <i type="logical" name="LMETAGGA"> F  </i>
   </separator>
   <separator name="electronic convergence" >
    <i type="int" name="NELM">    60</i>
    <i type="int" name="NELMDL">    -5</i>
    <i type="int" name="NELMIN">     2</i>
    <i name="ENINI">    350.00000000</i>
    <separator name="electronic convergence detail" >
     <i type="logical" name="LDIAG"> T  </i>
     <i type="logical" name="LSUBROT"> F  </i>
     <i name="WEIMIN">      0.00000000</i>
     <i name="EBREAK">      0.00000003</i>
     <i name="DEPER">      0.30000000</i>
     <i type="int" name="NRMM">     4</i>
     <i name="TIME">      0.40000000</i>
    </separator>
   </separator>
   <separator name="electronic mixer" >
    <i name="AMIX">      0.40000000</i>
    <i name="BMIX">      1.00000000</i>
    <i name="AMIN">      0.10000000</i>
    <i name="AMIX_MAG">      1.60000000</i>
    <i name="BMIX_MAG">      1.00000000</i>
    <separator name="electronic mixer details" >
     <i type="int" name="IMIX">     4</i>
     <i type="logical" name="MIXFIRST"> F  </i>
     <i type="int" name="MAXMIX">   -45</i>
     <i name="WC">    100.00000000</i>
     <i type="int" name="INIMIX">     1</i>
     <i type="int" name="MIXPRE">     1</i>
     <i type="int" name="MREMOVE">     5</i>
    </separator>
   </separator>
   <separator name="electronic dipolcorrection" >
    <i type="logical" name="LDIPOL"> F  </i>
    <i type="logical" name="LMONO"> F  </i>
    <i type="int" name="IDIPOL">     3</i>
    <i name="EPSILON">      1.00000000</i>
    <v name="DIPOL">   -100.00000000   -100.00000000   -100.00000000</v>
    <i name="EFIELD">      0.00000000</i>
   </separator>
  </separator>
  <separator name="grids" >
   <i type="int" name="NGX">    28</i>
   <i type="int" name="NGY">    28</i>
   <i type="int" name="NGZ">   144</i>
   <i type="int" name="NGXF">    56</i>
   <i type="int" name="NGYF">    56</i>
   <i type="int" name="NGZF">   288</i>
   <i type="logical" name="ADDGRID"> F  </i>
  </separator>
  <separator name="ionic" >
   <i type="int" name="NSW">     0</i>
   <i type="int" name="IBRION">    -1</i>
   <i type="int" name="MDALGO">     0</i>
   <i type="int" name="ISIF">     2</i>
   <i name="PSTRESS">      0.00000000</i>
   <i name="EDIFFG">     -0.05000000</i>
   <i type="int" name="NFREE">     1</i>
   <i name="POTIM">      0.50000000</i>
   <i name="SMASS">     -3.00000000</i>
   <i name="SCALEE">      1.00000000</i>
  </separator>
  <separator name="ionic md" >
   <i name="TEBEG">      0.00010000</i>
   <i name="TEEND">      0.00010000</i>
   <i type="int" name="NBLOCK">     1</i>
   <i type="int" name="KBLOCK">     1</i>
   <i type="int" name="NPACO">   256</i>
   <i name="APACO">     16.00000000</i>
  </separator>
  <separator name="symmetry" >
   <i type="int" name="ISYM">     2</i>
   <i name="SYMPREC">      0.00001000</i>
  </separator>
  <separator name="dos" >
   <i type="int" name="LORBIT">     0</i>
   <v name="RWIGS">     -1.00000000     -1.00000000     -1.00000000</v>
   <i type="int" name="NEDOS">   301</i>
   <i name="EMIN">     10.00000000</i>
   <i name="EMAX">    -10.00000000</i>
   <i name="EFERMI">      0.00000000</i>
  </separator>
  <separator name="writing" >
   <i type="int" name="NWRITE">     2</i>
   <i type="logical" name="LWAVE"> F  </i>
   <i type="logical" name="LDOWNSAMPLE"> F  </i>
   <i type="logical" name="LCHARG"> F  </i>
   <i type="logical" name="LPARD"> F  </i>
   <i type="logical" name="LVTOT"> F  </i>
   <i type="logical" name="LVHAR"> F  </i>
   <i type="logical" name="LELF"> F  </i>
   <i type="logical" name="LOPTICS"> F  </i>
   <v name="STM">      0.00000000      0.00000000      0.00000000      0.00000000      0.00000000      0.00000000      0.00000000</v>
  </separator>
  <separator name="performance" >
   <i type="int" name="NPAR">    24</i>
   <i type="int" name="NSIM">     4</i>
   <i type="int" name="NBLK">    -1</i>
   <i type="logical" name="LPLANE"> T  </i>
   <i type="logical" name="LSCALAPACK"> T  </i>
   <i type="logical" name="LSCAAWARE"> F  </i>
   <i type="logical" name="LSCALU"> F  </i>
   <i type="logical" name="LASYNC"> F  </i>
   <i type="logical" name="LORBITALREAL"> F  </i>
  </separator>
  <separator name="miscellaneous" >
   <i type="int" name="IDIOT">     3</i>
   <i type="int" name="ISPECIAL">     0</i>
   <i type="logical" name="LMUSIC"> F  </i>
   <v name="POMASS">    196.96600000    195.08000000    192.22000000</v>
   <v name="DARWINR">      0.00000000      0.00000000      0.00000000</v>
   <v name="DARWINV">      1.00000000      1.00000000      1.00000000</v>
   <i type="logical" name="LCORR"> T  </i>
  </separator>
  <i type="logical" name="GGA_COMPAT"> T  </i>
  <i type="logical" name="LBERRY"> F  </i>
  <i type="int" name="ICORELEVEL">     0</i>
  <i type="logical" name="LDAU"> F  </i>
  <i type="int" name="I_CONSTRAINED_M">     0</i>
  <separator name="electronic exchange-correlation" >
   <i type="string" name="GGA">PE</i>
   <i type="int" name="VOSKOWN">     0</i>
   <i type="logical" name="LHFCALC"> F  </i>
   <i type="string" name="PRECFOCK"></i>
   <i type="logical" name="LSYMGRAD"> F  </i>
   <i type="logical" name="LHFONE"> F  </i>
   <i type="logical" name="LRHFCALC"> F  </i>
   <i type="logical" name="LTHOMAS"> F  </i>
   <i type="logical" name="LMODELHF"> F  </i>
   <i name="ENCUT4O">     -1.00000000</i>
   <i type="int" name="EXXOEP">     0</i>
   <i type="int" name="FOURORBIT">     0</i>
   <i name="AEXX">      0.00000000</i>
   <i name="HFALPHA">      0.00000000</i>
   <i name="MCALPHA">      0.00000000</i>
   <i name="ALDAX">      1.00000000</i>
   <i name="AGGAX">      1.00000000</i>
   <i name="ALDAC">      1.00000000</i>
   <i name="AGGAC">      1.00000000</i>
   <i type="int" name="NKREDX">     1</i>
   <i type="int" name="NKREDY">     1</i>
   <i type="int" name="NKREDZ">     1</i>
   <i type="logical" name="SHIFTRED"> F  </i>
   <i type="logical" name="ODDONLY"> F  </i>
   <i type="logical" name="EVENONLY"> F  </i>
   <i type="int" name="LMAXFOCK">     0</i>
   <i type="int" name="NMAXFOCKAE">     0</i>
   <i type="logical" name="LFOCKAEDFT"> F  </i>
   <i name="HFSCREEN">      0.00000000</i>
   <i name="HFSCREENC">      0.00000000</i>
   <i type="int" name="NBANDSGWLOW">     0</i>
  </separator>
  <separator name="vdW DFT" >
   <i type="logical" name="LUSE_VDW"> F  </i>
   <i name="Zab_VDW">     -0.84910000</i>
   <i name="PARAM1">      0.12340000</i>
   <i name="PARAM2">      1.00000000</i>
   <i name="PARAM3">      0.00000000</i>
  </separator>
  <separator name="model GW" >
   <i type="int" name="MODEL_GW">     0</i>
   <i name="MODEL_EPS0">     30.90479278</i>
   <i name="MODEL_ALPHA">      1.00000000</i>
  </separator>
  <separator name="linear response parameters" >
   <i type="logical" name="LEPSILON"> F  </i>
   <i type="logical" name="LRPA"> F  </i>
   <i type="logical" name="LNABLA"> F  </i>
   <i type="logical" name="LVEL"> F  </i>
   <i type="int" name="KINTER">     0</i>
   <i name="CSHIFT">      0.10000000</i>
   <i name="OMEGAMAX">     -1.00000000</i>
   <i name="DEG_THRESHOLD">      0.00200000</i>
   <i name="RTIME">     -0.10000000</i>
   <i name="WPLASMAI">      0.00000000</i>
   <v name="DFIELD">      0.00000000      0.00000000      0.00000000</v>
   <v name="WPLASMA">      0.00000000      0.00000000      0.00000000      0.00000000      0.00000000      0.00000000      0.00000000      0.00000000      0.00000000</v>
  </separator>
  <separator name="orbital magnetization" >
   <i type="logical" name="NUCIND"> F  </i>
   <v name="MAGPOS">      0.00000000      0.00000000      0.00000000</v>
   <i type="logical" name="LNICSALL"> T  </i>
   <i type="logical" name="ORBITALMAG"> F  </i>
   <i type="logical" name="LMAGBLOCH"> F  </i>
   <i type="logical" name="LCHIMAG"> F  </i>
   <i type="logical" name="LGAUGE"> T  </i>
   <i type="int" name="MAGATOM">     0</i>
   <v name="MAGDIPOL">      0.00000000      0.00000000      0.00000000</v>
   <v name="AVECCONST">      0.00000000      0.00000000      0.00000000</v>
  </separator>
  <separator name="response functions" >
   <i type="logical" name="LADDER"> F  </i>
   <i type="logical" name="LRPAFORCE"> F  </i>
   <i type="logical" name="LFXC"> F  </i>
   <i type="logical" name="LHARTREE"> T  </i>
   <i type="int" name="IBSE">     0</i>
   <v type="int" name="KPOINT">    -1     0     0     0</v>
   <i type="logical" name="LTCTE"> F  </i>
   <i type="logical" name="LTETE"> F  </i>
   <i type="logical" name="LTRIPLET"> F  </i>
   <i type="logical" name="LFXCEPS"> F  </i>
   <i type="logical" name="LFXHEG"> F  </i>
   <i type="int" name="NATURALO">     2</i>
   <i type="logical" name="L2ORDER"> F  </i>
   <i type="logical" name="LMP2LT"> F  </i>
   <i type="logical" name="LUSEW"> F  </i>
   <i name="ENCUTGW">     -2.00000000</i>
   <i name="ENCUTGWSOFT">     -2.00000000</i>
   <i name="ENCUTLF">     -1.00000000</i>
   <i type="int" name="LMAXMP2">    -1</i>
   <i name="SCISSOR">      0.00000000</i>
   <i type="int" name="NOMEGA">     0</i>
   <i type="int" name="NOMEGAR">     0</i>
   <i type="int" name="NBANDSGW">    -1</i>
   <i type="int" name="NBANDSO">    -1</i>
   <i type="int" name="NBANDSV">    -1</i>
   <i type="int" name="NELM">     1</i>
   <i type="int" name="NELMHF">     1</i>
   <i type="int" name="DIM">     3</i>
   <i type="int" name="ANTIRES">     0</i>
   <i name="OMEGAMAX">    -30.00000000</i>
   <i name="OMEGAMIN">    -30.00000000</i>
   <i name="OMEGATL">   -200.00000000</i>
   <i type="int" name="OMEGAGRID">   140</i>
   <i name="CSHIFT">     -0.10000000</i>
   <i type="logical" name="SELFENERGY"> F  </i>
   <i type="logical" name="LSPECTRAL"> F  </i>
   <i type="logical" name="LSPECTRALGW"> F  </i>
   <i type="logical" name="LSINGLES"> F  </i>
   <i type="logical" name="LFERMIGW"> F  </i>
   <i type="logical" name="ODDONLYGW"> F  </i>
   <i type="logical" name="EVENONLYGW"> F  </i>
   <i type="int" name="NKREDLFX">     1</i>
   <i type="int" name="NKREDLFY">     1</i>
   <i type="int" name="NKREDLFZ">     1</i>
   <i type="int" name="MAXMEM">  2800</i>
   <i type="int" name="TELESCOPE">     0</i>
   <i type="int" name="TAUPAR">     1</i>
   <i type="int" name="OMEGAPAR">    -1</i>
   <i name="LAMBDA">      1.00000000</i>
  </separator>
  <separator name="External order field" >
   <i name="OFIELD_KAPPA">      0.00000000</i>
   <v name="OFIELD_K">      0.00000000      0.00000000      0.00000000</v>
   <i name="OFIELD_Q6_NEAR">      0.00000000</i>
   <i name="OFIELD_Q6_FAR">      0.00000000</i>
   <i name="OFIELD_A">      0.00000000</i>
  </separator>
 </parameters>
 <atominfo>
  <atoms>      16 </atoms>
  <types>       3 </types>
  <array name="atoms" >
   <dimension dim="1">ion</dimension>
   <field type="string">element</field>
   <field type="int">atomtype</field>
   <set>
    <rc><c>Au</c><c>   1</c></rc>
    <rc><c>Pt</c><c>   2</c></rc>
    <rc><c>Pt</c><c>   2</c></rc>
    <rc><c>Pt</c><c>   2</c></rc>
    <rc><c>Pt</c><c>   2</c></rc>
    <rc><c>Pt</c><c>   2</c></rc>
    <rc><c>Pt</c><c>   2</c></rc>
    <rc><c>Pt</c><c>   2</c></rc>
    <rc><c>Pt</c><c>   2</c></rc>
    <rc><c>Pt</c><c>   2</c></rc>
    <rc><c>Pt</c><c>   2</c></rc>
    <rc><c>Pt</c><c>   2</c></rc>
    <rc><c>Pt</c><c>   2</c></rc>
    <rc><c>Pt</c><c>   2</c></rc>
    <rc><c>Pt</c><c>   2</c></rc>
    <rc><c>Ir</c><c>   3</c></rc>
   </set>
  </array>
  <array name="atomtypes" >
   <dimension dim="1">type</dimension>
   <field type="int">atomspertype</field>
   <field type="string">element</field>
   <field>mass</field>
   <field>valence</field>
   <field type="string">pseudopotential</field>
   <set>
    <rc><c>   1</c><c>Au</c><c>    196.96600000</c><c>     11.00000000</c><c>  PAW_PBE Au 04Oct2007                  </c></rc>
    <rc><c>  14</c><c>Pt</c><c>    195.08000000</c><c>     10.00000000</c><c>  PAW_PBE Pt 04Feb2005                  </c></rc>
    <rc><c>   1</c><c>Ir</c><c>    192.22000000</c><c>      9.00000000</c><c>  PAW_PBE Ir 06Sep2000                  </c></rc>
   </set>
  </array>
 </atominfo>
 <structure name="initialpos" >
  <crystal>
   <varray name="basis" >
    <v>       5.55785930       0.00000000       0.00000000 </v>
    <v>       2.77892965       4.81324734       0.00000000 </v>
    <v>       0.00000000       0.00000000      30.80695967 </v>
   </varray>
   <i name="volume">    824.12780743 </i>
   <varray name="rec_basis" >
    <v>       0.17992539      -0.10387997       0.00000000 </v>
    <v>       0.00000000       0.20775994       0.00000000 </v>
    <v>       0.00000000       0.00000000       0.03246020 </v>
   </varray>
  </crystal>
  <varray name="positions" >
   <v>       0.00000000       0.00000000       0.38952237 </v>
   <v>       0.50000000       0.00000000       0.38952237 </v>
   <v>       0.00000000       0.50000000       0.38952237 </v>
   <v>       0.50000000       0.50000000       0.38952237 </v>
   <v>       0.16666667       0.16666667       0.46468540 </v>
   <v>       0.66666667       0.16666667       0.46468540 </v>
   <v>       0.16666667       0.66666667       0.46468540 </v>
   <v>       0.66666667       0.66666667       0.46468540 </v>
   <v>       0.83333333       0.33333333       0.53920296 </v>
   <v>       0.33333333       0.33333333       0.53920296 </v>
   <v>       0.83333333       0.83333333       0.53920296 </v>
   <v>       0.33333333       0.83333333       0.53920296 </v>
   <v>       0.50000000       0.00000000       0.61486043 </v>
   <v>       0.00000000       0.50000000       0.61486043 </v>
   <v>       0.50000000       0.50000000       0.61486043 </v>
   <v>       0.00000000       0.00000000       0.61486043 </v>
  </varray>
  <varray name="selective"  type="logical" >
   <v type="logical" >  F  F  F </v>
   <v type="logical" >  F  F  F </v>
   <v type="logical" >  F  F  F </v>
   <v type="logical" >  F  F  F </v>
   <v type="logical" >  T  T  T </v>
   <v type="logical" >  T  T  T </v>
   <v type="logical" >  T  T  T </v>
   <v type="logical" >  T  T  T </v>
   <v type="logical" >  T  T  T </v>
   <v type="logical" >  T  T  T </v>
   <v type="logical" >  T  T  T </v>
   <v type="logical" >  T  T  T </v>
   <v type="logical" >  T  T  T </v>
   <v type="logical" >  T  T  T </v>
   <v type="logical" >  T  T  T </v>
   <v type="logical" >  T  T  T </v>
  </varray>
  <nose>
   <v>      -3.00000000       0.00000000       0.00010000       0.00010000 </v>
  </nose>
 </structure>
 <calculation>
  <scstep>
   <time name="dav">    4.22    4.22</time>
   <time name="total">    4.24    4.26</time>
   <energy>
    <i name="alphaZ">    303.52543553 </i>
    <i name="ewald">  98439.91525945 </i>
    <i name="hartreedc">-110511.42897205 </i>
    <i name="XCdc">     46.26589481 </i>
    <i name="pawpsdc">  11171.21661038 </i>
    <i name="pawaedc"> -10711.84633960 </i>
    <i name="eentropy">     -0.00034896 </i>
    <i name="bandstr">    544.06400901 </i>
    <i name="atom">  11693.69420960 </i>
    <i name="e_fr_energy">    975.40575816 </i>
    <i name="e_wo_entrp">    975.40610712 </i>
    <i name="e_0_energy">    975.40587448 </i>
   </energy>
  </scstep>
  <scstep>
   <time name="dav">    5.76    5.76</time>
   <time name="total">    5.76    5.76</time>
   <energy>
    <i name="e_fr_energy">    -38.59606178 </i>
    <i name="e_wo_entrp">    -38.59470850 </i>
    <i name="e_0_energy">    -38.59561069 </i>
   </energy>
  </scstep>
  <scstep>
   <time name="dav">    5.21    5.21</time>
   <time name="total">    5.21    5.21</time>
   <energy>
    <i name="e_fr_energy">    -96.98080086 </i>
    <i name="e_wo_entrp">    -96.95747124 </i>
    <i name="e_0_energy">    -96.97302432 </i>
   </energy>
  </scstep>
  <scstep>
   <time name="dav">    5.42    5.43</time>
   <time name="total">    5.42    5.43</time>
   <energy>
    <i name="e_fr_energy">    -98.21502463 </i>
    <i name="e_wo_entrp">    -98.18836773 </i>
    <i name="e_0_energy">    -98.20613900 </i>
   </energy>
  </scstep>
  <scstep>
   <time name="dav">    5.96    5.96</time>
   <time name="total">    6.10    6.10</time>
   <energy>
    <i name="e_fr_energy">    -98.25253136 </i>
    <i name="e_wo_entrp">    -98.22582546 </i>
    <i name="e_0_energy">    -98.24362939 </i>
   </energy>
  </scstep>
  <scstep>
   <time name="dav">    4.85    4.85</time>
   <time name="total">    5.02    5.03</time>
   <energy>
    <i name="e_fr_energy">    -94.31655345 </i>
    <i name="e_wo_entrp">    -94.30657839 </i>
    <i name="e_0_energy">    -94.31322843 </i>
   </energy>
  </scstep>
  <scstep>
   <time name="dav">    5.93    5.93</time>
   <time name="total">    6.09    6.09</time>
   <energy>
    <i name="e_fr_energy">   -125.26330711 </i>
    <i name="e_wo_entrp">   -125.27017717 </i>
    <i name="e_0_energy">   -125.26559713 </i>
   </energy>
  </scstep>
  <scstep>
   <time name="dav">    6.12    6.12</time>
   <time name="total">    6.28    6.28</time>
   <energy>
    <i name="e_fr_energy">   -102.61884117 </i>
    <i name="e_wo_entrp">   -102.62645725 </i>
    <i name="e_0_energy">   -102.62137986 </i>
   </energy>
  </scstep>
  <scstep>
   <time name="dav">    5.36    5.36</time>
   <time name="total">    5.52    5.52</time>
   <energy>
    <i name="e_fr_energy">   -102.63812731 </i>
    <i name="e_wo_entrp">   -102.66026298 </i>
    <i name="e_0_energy">   -102.64550587 </i>
   </energy>
  </scstep>
  <scstep>
   <time name="dav">    6.33    6.33</time>
   <time name="total">    6.49    6.49</time>
   <energy>
    <i name="e_fr_energy">   -102.04972194 </i>
    <i name="e_wo_entrp">   -102.02013503 </i>
    <i name="e_0_energy">   -102.03985963 </i>
   </energy>
  </scstep>
  <scstep>
   <time name="dav">    5.64    5.64</time>
   <time name="total">    5.82    5.82</time>
   <energy>
    <i name="e_fr_energy">    -93.03922362 </i>
    <i name="e_wo_entrp">    -92.99023751 </i>
    <i name="e_0_energy">    -93.02289492 </i>
   </energy>
  </scstep>
  <scstep>
   <time name="dav">    5.89    5.89</time>
   <time name="total">    6.07    6.07</time>
   <energy>
    <i name="e_fr_energy">    -93.24088641 </i>
    <i name="e_wo_entrp">    -93.22254026 </i>
    <i name="e_0_energy">    -93.23477103 </i>
   </energy>
  </scstep>
  <scstep>
   <time name="dav">    5.78    5.78</time>
   <time name="total">    5.97    5.98</time>
   <energy>
    <i name="e_fr_energy">    -92.15667366 </i>
    <i name="e_wo_entrp">    -92.12064367 </i>
    <i name="e_0_energy">    -92.14466366 </i>
   </energy>
  </scstep>
  <scstep>
   <time name="dav">    4.89    4.89</time>
   <time name="total">    5.07    5.07</time>
   <energy>
    <i name="e_fr_energy">    -92.05981183 </i>
    <i name="e_wo_entrp">    -92.02052116 </i>
    <i name="e_0_energy">    -92.04671494 </i>
   </energy>
  </scstep>
  <scstep>
   <time name="dav">    5.21    5.21</time>
   <time name="total">    5.39    5.39</time>
   <energy>
    <i name="e_fr_energy">    -92.06242186 </i>
    <i name="e_wo_entrp">    -92.02229218 </i>
    <i name="e_0_energy">    -92.04904530 </i>
   </energy>
  </scstep>
  <scstep>
   <time name="dav">    5.70    5.70</time>
   <time name="total">    5.87    5.87</time>
   <energy>
    <i name="e_fr_energy">    -92.03008655 </i>
    <i name="e_wo_entrp">    -91.99097704 </i>
    <i name="e_0_energy">    -92.01705005 </i>
   </energy>
  </scstep>
  <scstep>
   <time name="dav">    5.16    5.16</time>
   <time name="total">    5.34    5.34</time>
   <energy>
    <i name="e_fr_energy">    -92.01483215 </i>
    <i name="e_wo_entrp">    -91.98044245 </i>
    <i name="e_0_energy">    -92.00336891 </i>
   </energy>
  </scstep>
  <scstep>
   <time name="dav">    4.87    4.87</time>
   <time name="total">    5.04    5.04</time>
   <energy>
    <i name="e_fr_energy">    -92.01199185 </i>
    <i name="e_wo_entrp">    -91.97645772 </i>
    <i name="e_0_energy">    -92.00014714 </i>
   </energy>
  </scstep>
  <scstep>
   <time name="dav">    5.59    5.59</time>
   <time name="total">    5.76    5.76</time>
   <energy>
    <i name="e_fr_energy">    -92.00854338 </i>
    <i name="e_wo_entrp">    -91.97301942 </i>
    <i name="e_0_energy">    -91.99670206 </i>
   </energy>
  </scstep>
  <scstep>
   <time name="dav">    5.53    5.53</time>
   <time name="total">    5.71    5.71</time>
   <energy>
    <i name="e_fr_energy">    -92.00523831 </i>
    <i name="e_wo_entrp">    -91.96943680 </i>
    <i name="e_0_energy">    -91.99330447 </i>
   </energy>
  </scstep>
  <scstep>
   <time name="dav">    5.14    5.14</time>
   <time name="total">    5.32    5.32</time>
   <energy>
    <i name="e_fr_energy">    -92.00537746 </i>
    <i name="e_wo_entrp">    -91.97006299 </i>
    <i name="e_0_energy">    -91.99360597 </i>
   </energy>
  </scstep>
  <scstep>
   <time name="dav">    6.07    6.07</time>
   <time name="total">    6.25    6.25</time>
   <energy>
    <i name="e_fr_energy">    -92.00388864 </i>
    <i name="e_wo_entrp">    -91.96823887 </i>
    <i name="e_0_energy">    -91.99200539 </i>
   </energy>
  </scstep>
  <scstep>
   <time name="dav">    6.22    6.22</time>
   <time name="total">    6.40    6.40</time>
   <energy>
    <i name="e_fr_energy">    -92.00313394 </i>
    <i name="e_wo_entrp">    -91.96726106 </i>
    <i name="e_0_energy">    -91.99117632 </i>
   </energy>
  </scstep>
  <scstep>
   <time name="dav">    5.41    5.41</time>
   <time name="total">    5.59    5.59</time>
   <energy>
    <i name="e_fr_energy">    -92.00295027 </i>
    <i name="e_wo_entrp">    -91.96671915 </i>
    <i name="e_0_energy">    -91.99087323 </i>
   </energy>
  </scstep>
  <scstep>
   <time name="dav">    4.43    4.43</time>
   <time name="total">    4.61    4.61</time>
   <energy>
    <i name="e_fr_energy">    -92.00297342 </i>
    <i name="e_wo_entrp">    -91.96676342 </i>
    <i name="e_0_energy">    -91.99090342 </i>
   </energy>
  </scstep>
  <scstep>
   <time name="dav">    3.82    3.82</time>
   <time name="total">    3.99    3.99</time>
   <energy>
    <i name="e_fr_energy">    -92.00297007 </i>
    <i name="e_wo_entrp">    -91.96663608 </i>
    <i name="e_0_energy">    -91.99085874 </i>
   </energy>
  </scstep>
  <scstep>
   <time name="dav">    3.55    3.55</time>
   <time name="total">    3.73    3.73</time>
   <energy>
    <i name="e_fr_energy">    -92.00298966 </i>
    <i name="e_wo_entrp">    -91.96662738 </i>
    <i name="e_0_energy">    -91.99086890 </i>
   </energy>
  </scstep>
  <scstep>
   <time name="dav">    3.53    3.53</time>
   <time name="total">    3.71    3.71</time>
   <energy>
    <i name="e_fr_energy">    -92.00300560 </i>
    <i name="e_wo_entrp">    -91.96664934 </i>
    <i name="e_0_energy">    -91.99088684 </i>
   </energy>
  </scstep>
  <scstep>
   <time name="dav">    3.53    3.53</time>
   <time name="total">    3.71    3.72</time>
   <energy>
    <i name="e_fr_energy">    -92.00301712 </i>
    <i name="e_wo_entrp">    -91.96667668 </i>
    <i name="e_0_energy">    -91.99090364 </i>
   </energy>
  </scstep>
  <scstep>
   <time name="dav">    3.47    3.47</time>
   <time name="total">    3.65    3.65</time>
   <energy>
    <i name="e_fr_energy">    -92.00303657 </i>
    <i name="e_wo_entrp">    -91.96667952 </i>
    <i name="e_0_energy">    -91.99091755 </i>
   </energy>
  </scstep>
  <scstep>
   <time name="dav">    3.52    3.52</time>
   <time name="total">    3.54    3.54</time>
   <energy>
    <i name="alphaZ">    303.52543553 </i>
    <i name="ewald">  98439.91525945 </i>
    <i name="hartreedc">-110345.85678886 </i>
    <i name="XCdc">     40.61526653 </i>
    <i name="pawpsdc">  14192.64361864 </i>
    <i name="pawaedc"> -13777.59045669 </i>
    <i name="eentropy">     -0.03635890 </i>
    <i name="bandstr">   -638.91322859 </i>
    <i name="atom">  11693.69420960 </i>
    <i name="e_fr_energy">    -92.00304330 </i>
    <i name="e_wo_entrp">    -91.96668440 </i>
    <i name="e_0_energy">    -91.99092366 </i>
   </energy>
  </scstep>
  <dipole>
   <v name="dipole">      0.00000000       0.00000000       0.02348898 </v>
   <i name="Tr[quadrupol]">   -951.20454743 </i>
   <i name="Echarged">      0.00000000 </i>
   <i name="Edipol_quadrupol">      0.00000000 </i>
   <i name="Eion">      0.00000000 </i>
  </dipole>
  <structure>
   <crystal>
    <varray name="basis" >
     <v>       5.55785930       0.00000000       0.00000000 </v>
     <v>       2.77892965       4.81324734       0.00000000 </v>
     <v>       0.00000000       0.00000000      30.80695967 </v>
    </varray>
    <i name="volume">    824.12780743 </i>
    <varray name="rec_basis" >
     <v>       0.17992539      -0.10387997       0.00000000 </v>
     <v>       0.00000000       0.20775994       0.00000000 </v>
     <v>       0.00000000       0.00000000       0.03246020 </v>
    </varray>
   </crystal>
   <varray name="positions" >
    <v>       0.00000000       0.00000000       0.38952237 </v>
    <v>       0.50000000       0.00000000       0.38952237 </v>
    <v>       0.00000000       0.50000000       0.38952237 </v>
    <v>       0.50000000       0.50000000       0.38952237 </v>
    <v>       0.16666667       0.16666667       0.46468540 </v>
    <v>       0.66666667       0.16666667       0.46468540 </v>
    <v>       0.16666667       0.66666667       0.46468540 </v>
    <v>       0.66666667       0.66666667       0.46468540 </v>
    <v>       0.83333333       0.33333333       0.53920296 </v>
    <v>       0.33333333       0.33333333       0.53920296 </v>
    <v>       0.83333333       0.83333333       0.53920296 </v>
    <v>       0.33333333       0.83333333       0.53920296 </v>
    <v>       0.50000000       0.00000000       0.61486043 </v>
    <v>       0.00000000       0.50000000       0.61486043 </v>
    <v>       0.50000000       0.50000000       0.61486043 </v>
    <v>       0.00000000       0.00000000       0.61486043 </v>
   </varray>
  </structure>
  <varray name="forces" >
   <v>      -0.00000000      -0.00000000      -1.15718235 </v>
   <v>      -0.00000000      -0.02508760       0.05623073 </v>
   <v>      -0.02172650       0.01254380       0.05623073 </v>
   <v>       0.02172650       0.01254380       0.05623073 </v>
   <v>       0.12562209       0.07252795       0.19404033 </v>
   <v>      -0.12562209       0.07252795       0.19404033 </v>
   <v>      -0.00000000      -0.14505590       0.19404033 </v>
   <v>      -0.00000000       0.00000000       0.18133360 </v>
   <v>       0.00000000      -0.17502863       0.30796596 </v>
   <v>      -0.00000000       0.00000000       0.21832875 </v>
   <v>       0.15157924       0.08751432       0.30796596 </v>
   <v>      -0.15157924       0.08751432       0.30796596 </v>
   <v>      -0.00000000      -0.05864751       0.08893271 </v>
   <v>      -0.05079023       0.02932375       0.08893271 </v>
   <v>       0.05079023       0.02932375       0.08893271 </v>
   <v>      -0.00000000       0.00000000      -1.18398920 </v>
  </varray>
  <varray name="stress" >
   <v>     -21.72765095       0.00000000       0.00000000 </v>
   <v>       0.00000000     -21.72765095       0.00000000 </v>
   <v>       0.00000000      -0.00000000      -1.06002101 </v>
  </varray>
  <energy>
   <i name="e_fr_energy">    -92.00298273 </i>
   <i name="e_wo_entrp">    -91.99086309 </i>
   <i name="e_0_energy">     -0.03635890 </i>
  </energy>
  <time name="totalsc">  170.57  170.64</time>
  <eigenvalues>
   <array>
    <dimension dim="1">band</dimension>
    <dimension dim="2">kpoint</dimension>
    <dimension dim="3">spin</dimension>
    <field>eigene</field>
    <field>occ</field>
    <set>
     <set comment="spin 1">
      <set comment="kpoint 1">
       <r>  -10.1733    1.0000 </r>
       <r>   -8.9033    1.0000 </r>
       <r>   -7.8463    1.0000 </r>
       <r>   -7.7119    1.0000 </r>
       <r>   -7.4428    1.0000 </r>
       <r>   -7.4199    1.0000 </r>
       <r>   -7.4161    1.0000 </r>
       <r>   -7.2942    1.0000 </r>
       <r>   -7.2822    1.0000 </r>
       <r>   -7.2659    1.0000 </r>
       <r>   -6.8315    1.0000 </r>
       <r>   -6.8143    1.0000 </r>
       <r>   -6.8087    1.0000 </r>
       <r>   -6.7902    1.0000 </r>
       <r>   -6.7812    1.0000 </r>
       <r>   -6.5873    1.0000 </r>
       <r>   -6.5087    1.0000 </r>
       <r>   -6.4916    1.0000 </r>
       <r>   -6.4755    1.0000 </r>
       <r>   -5.7769    1.0000 </r>
       <r>   -5.7754    1.0000 </r>
       <r>   -5.6763    1.0000 </r>
       <r>   -4.9056    1.0000 </r>
       <r>   -4.8989    1.0000 </r>
       <r>   -4.8000    1.0000 </r>
       <r>   -4.6600    1.0000 </r>
       <r>   -4.6420    1.0000 </r>
       <r>   -4.6393    1.0000 </r>
       <r>   -4.6011    1.0000 </r>
       <r>   -4.5125    1.0000 </r>
       <r>   -4.3538    1.0000 </r>
       <r>   -4.3076    1.0000 </r>
       <r>   -4.1949    1.0000 </r>
       <r>   -4.1845    1.0000 </r>
       <r>   -4.0516    1.0000 </r>
       <r>   -4.0224    1.0000 </r>
       <r>   -3.9732    1.0000 </r>
       <r>   -3.9724    1.0000 </r>
       <r>   -3.9359    1.0000 </r>
       <r>   -3.7970    1.0000 </r>
       <r>   -3.6753    1.0000 </r>
       <r>   -3.6467    1.0000 </r>
       <r>   -3.4931    1.0000 </r>
       <r>   -3.4402    1.0000 </r>
       <r>   -3.4383    1.0000 </r>
       <r>   -3.1781    1.0000 </r>
       <r>   -3.1481    1.0000 </r>
       <r>   -2.9165    1.0000 </r>
       <r>   -2.8604    1.0000 </r>
       <r>   -2.7482    1.0000 </r>
       <r>   -2.7189    1.0000 </r>
       <r>   -2.3409    1.0000 </r>
       <r>   -2.3346    1.0000 </r>
       <r>   -2.0656    1.0000 </r>
       <r>   -2.0514    1.0000 </r>
       <r>   -1.8417    1.0000 </r>
       <r>   -1.8138    1.0000 </r>
       <r>   -1.7153    1.0000 </r>
       <r>   -1.7151    1.0000 </r>
       <r>   -1.5949    1.0000 </r>
       <r>   -1.5905    1.0000 </r>
       <r>   -1.4618    1.0000 </r>
       <r>   -1.1659    1.0128 </r>
       <r>   -1.1432    1.0173 </r>
       <r>   -1.1164    1.0232 </r>
       <r>   -1.0957    1.0280 </r>
       <r>   -1.0381    1.0354 </r>
       <r>   -0.9785    1.0125 </r>
       <r>   -0.9360    0.9577 </r>
       <r>   -0.9145    0.9138 </r>
       <r>   -0.8064    0.5388 </r>
       <r>   -0.7866    0.4552 </r>
       <r>   -0.7348    0.2498 </r>
       <r>   -0.7207    0.2011 </r>
       <r>   -0.6955    0.1254 </r>
       <r>   -0.6772    0.0801 </r>
       <r>   -0.6452    0.0209 </r>
       <r>   -0.5208   -0.0324 </r>
       <r>   -0.5034   -0.0290 </r>
       <r>   -0.4748   -0.0225 </r>
       <r>   -0.3240   -0.0021 </r>
       <r>   -0.1855   -0.0001 </r>
       <r>   -0.0916   -0.0000 </r>
       <r>    0.0008   -0.0000 </r>
       <r>    0.0465   -0.0000 </r>
       <r>    0.1071   -0.0000 </r>
       <r>    0.3894   -0.0000 </r>
       <r>    0.4229   -0.0000 </r>
       <r>    1.2162   -0.0000 </r>
       <r>    1.5029   -0.0000 </r>
       <r>    1.6320   -0.0000 </r>
       <r>    1.6545   -0.0000 </r>
       <r>    1.7841   -0.0000 </r>
       <r>    1.7928   -0.0000 </r>
       <r>    2.5988   -0.0000 </r>
       <r>    2.6000   -0.0000 </r>
      </set>
      <set comment="kpoint 2">
       <r>   -9.9693    1.0000 </r>
       <r>   -8.7017    1.0000 </r>
       <r>   -7.6422    1.0000 </r>
       <r>   -7.5168    1.0000 </r>
       <r>   -7.4254    1.0000 </r>
       <r>   -7.3477    1.0000 </r>
       <r>   -7.2300    1.0000 </r>
       <r>   -7.2115    1.0000 </r>
       <r>   -7.1626    1.0000 </r>
       <r>   -7.0952    1.0000 </r>
       <r>   -6.7415    1.0000 </r>
       <r>   -6.7208    1.0000 </r>
       <r>   -6.7065    1.0000 </r>
       <r>   -6.6972    1.0000 </r>
       <r>   -6.6401    1.0000 </r>
       <r>   -6.4637    1.0000 </r>
       <r>   -6.4125    1.0000 </r>
       <r>   -6.3489    1.0000 </r>
       <r>   -6.2841    1.0000 </r>
       <r>   -5.7197    1.0000 </r>
       <r>   -5.7109    1.0000 </r>
       <r>   -5.6219    1.0000 </r>
       <r>   -4.9474    1.0000 </r>
       <r>   -4.8911    1.0000 </r>
       <r>   -4.8371    1.0000 </r>
       <r>   -4.7169    1.0000 </r>
       <r>   -4.6545    1.0000 </r>
       <r>   -4.5832    1.0000 </r>
       <r>   -4.5634    1.0000 </r>
       <r>   -4.5193    1.0000 </r>
       <r>   -4.4695    1.0000 </r>
       <r>   -4.1928    1.0000 </r>
       <r>   -4.1595    1.0000 </r>
       <r>   -4.1290    1.0000 </r>
       <r>   -4.0866    1.0000 </r>
       <r>   -4.0332    1.0000 </r>
       <r>   -3.9978    1.0000 </r>
       <r>   -3.9443    1.0000 </r>
       <r>   -3.8967    1.0000 </r>
       <r>   -3.8613    1.0000 </r>
       <r>   -3.7589    1.0000 </r>
       <r>   -3.6408    1.0000 </r>
       <r>   -3.6023    1.0000 </r>
       <r>   -3.5813    1.0000 </r>
       <r>   -3.4960    1.0000 </r>
       <r>   -3.4487    1.0000 </r>
       <r>   -3.3108    1.0000 </r>
       <r>   -3.0927    1.0000 </r>
       <r>   -2.9569    1.0000 </r>
       <r>   -2.7725    1.0000 </r>
       <r>   -2.6857    1.0000 </r>
       <r>   -2.4545    1.0000 </r>
       <r>   -2.4055    1.0000 </r>
       <r>   -2.3187    1.0000 </r>
       <r>   -2.1172    1.0000 </r>
       <r>   -2.0016    1.0000 </r>
       <r>   -1.9260    1.0000 </r>
       <r>   -1.9164    1.0000 </r>
       <r>   -1.8247    1.0000 </r>
       <r>   -1.8116    1.0000 </r>
       <r>   -1.7705    1.0000 </r>
       <r>   -1.7338    1.0000 </r>
       <r>   -1.6124    1.0000 </r>
       <r>   -1.5784    1.0000 </r>
       <r>   -1.5061    1.0000 </r>
       <r>   -1.4388    1.0000 </r>
       <r>   -1.2081    1.0067 </r>
       <r>   -1.1633    1.0133 </r>
       <r>   -1.1047    1.0260 </r>
       <r>   -1.0827    1.0307 </r>
       <r>   -1.0430    1.0355 </r>
       <r>   -1.0174    1.0327 </r>
       <r>   -0.9703    1.0050 </r>
       <r>   -0.9319    0.9503 </r>
       <r>   -0.8445    0.6940 </r>
       <r>   -0.8046    0.5316 </r>
       <r>   -0.7724    0.3959 </r>
       <r>   -0.7490    0.3027 </r>
       <r>   -0.6976    0.1310 </r>
       <r>   -0.6648    0.0542 </r>
       <r>   -0.5288   -0.0337 </r>
       <r>   -0.4577   -0.0187 </r>
       <r>   -0.3758   -0.0056 </r>
       <r>   -0.2740   -0.0007 </r>
       <r>   -0.1653   -0.0000 </r>
       <r>    0.1953   -0.0000 </r>
       <r>    0.2852   -0.0000 </r>
       <r>    0.8268   -0.0000 </r>
       <r>    0.8563   -0.0000 </r>
       <r>    1.1112   -0.0000 </r>
       <r>    1.2991   -0.0000 </r>
       <r>    1.6350   -0.0000 </r>
       <r>    2.1557   -0.0000 </r>
       <r>    2.5364   -0.0000 </r>
       <r>    3.0267   -0.0000 </r>
       <r>    3.3805   -0.0000 </r>
      </set>
      <set comment="kpoint 3">
       <r>   -9.5156    1.0000 </r>
       <r>   -8.2658    1.0000 </r>
       <r>   -7.5249    1.0000 </r>
       <r>   -7.2171    1.0000 </r>
       <r>   -7.1068    1.0000 </r>
       <r>   -7.0968    1.0000 </r>
       <r>   -7.0856    1.0000 </r>
       <r>   -6.8905    1.0000 </r>
       <r>   -6.8626    1.0000 </r>
       <r>   -6.7858    1.0000 </r>
       <r>   -6.6596    1.0000 </r>
       <r>   -6.5008    1.0000 </r>
       <r>   -6.4777    1.0000 </r>
       <r>   -6.4378    1.0000 </r>
       <r>   -6.3268    1.0000 </r>
       <r>   -6.2678    1.0000 </r>
       <r>   -6.1196    1.0000 </r>
       <r>   -6.0111    1.0000 </r>
       <r>   -5.9124    1.0000 </r>
       <r>   -5.5884    1.0000 </r>
       <r>   -5.5645    1.0000 </r>
       <r>   -5.5073    1.0000 </r>
       <r>   -5.0805    1.0000 </r>
       <r>   -5.0323    1.0000 </r>
       <r>   -4.9381    1.0000 </r>
       <r>   -4.8387    1.0000 </r>
       <r>   -4.7819    1.0000 </r>
       <r>   -4.7105    1.0000 </r>
       <r>   -4.5189    1.0000 </r>
       <r>   -4.4699    1.0000 </r>
       <r>   -4.4170    1.0000 </r>
       <r>   -4.2763    1.0000 </r>
       <r>   -4.2390    1.0000 </r>
       <r>   -4.2137    1.0000 </r>
       <r>   -4.1189    1.0000 </r>
       <r>   -4.0701    1.0000 </r>
       <r>   -4.0186    1.0000 </r>
       <r>   -3.9148    1.0000 </r>
       <r>   -3.8989    1.0000 </r>
       <r>   -3.8552    1.0000 </r>
       <r>   -3.8009    1.0000 </r>
       <r>   -3.7983    1.0000 </r>
       <r>   -3.7683    1.0000 </r>
       <r>   -3.7474    1.0000 </r>
       <r>   -3.6335    1.0000 </r>
       <r>   -3.5364    1.0000 </r>
       <r>   -3.4398    1.0000 </r>
       <r>   -3.2066    1.0000 </r>
       <r>   -3.0490    1.0000 </r>
       <r>   -2.9907    1.0000 </r>
       <r>   -2.8823    1.0000 </r>
       <r>   -2.7906    1.0000 </r>
       <r>   -2.7007    1.0000 </r>
       <r>   -2.6878    1.0000 </r>
       <r>   -2.5767    1.0000 </r>
       <r>   -2.5513    1.0000 </r>
       <r>   -2.5009    1.0000 </r>
       <r>   -2.4647    1.0000 </r>
       <r>   -2.3952    1.0000 </r>
       <r>   -2.3084    1.0000 </r>
       <r>   -2.1547    1.0000 </r>
       <r>   -2.1080    1.0000 </r>
       <r>   -1.9999    1.0000 </r>
       <r>   -1.9400    1.0000 </r>
       <r>   -1.8634    1.0000 </r>
       <r>   -1.7969    1.0000 </r>
       <r>   -1.6982    1.0000 </r>
       <r>   -1.5668    1.0000 </r>
       <r>   -1.5538    1.0000 </r>
       <r>   -1.4903    1.0000 </r>
       <r>   -1.4637    1.0000 </r>
       <r>   -1.3886    1.0001 </r>
       <r>   -1.2550    1.0028 </r>
       <r>   -1.2278    1.0047 </r>
       <r>   -1.1405    1.0178 </r>
       <r>   -1.0850    1.0303 </r>
       <r>   -1.0443    1.0354 </r>
       <r>   -0.9744    1.0089 </r>
       <r>   -0.8654    0.7709 </r>
       <r>   -0.8316    0.6435 </r>
       <r>   -0.7914    0.4757 </r>
       <r>   -0.7015    0.1420 </r>
       <r>   -0.5838   -0.0307 </r>
       <r>   -0.5079   -0.0300 </r>
       <r>   -0.4872   -0.0254 </r>
       <r>    0.3229   -0.0000 </r>
       <r>    0.3853   -0.0000 </r>
       <r>    0.5576   -0.0000 </r>
       <r>    0.9512   -0.0000 </r>
       <r>    1.7254   -0.0000 </r>
       <r>    1.8977   -0.0000 </r>
       <r>    1.9338   -0.0000 </r>
       <r>    2.3181   -0.0000 </r>
       <r>    2.6787   -0.0000 </r>
       <r>    3.2449   -0.0000 </r>
       <r>    3.9255   -0.0000 </r>
      </set>
      <set comment="kpoint 4">
       <r>   -8.8765    1.0000 </r>
       <r>   -7.8916    1.0000 </r>
       <r>   -7.7034    1.0000 </r>
       <r>   -7.1286    1.0000 </r>
       <r>   -6.7719    1.0000 </r>
       <r>   -6.7561    1.0000 </r>
       <r>   -6.5891    1.0000 </r>
       <r>   -6.5485    1.0000 </r>
       <r>   -6.5362    1.0000 </r>
       <r>   -6.5285    1.0000 </r>
       <r>   -6.4705    1.0000 </r>
       <r>   -6.2227    1.0000 </r>
       <r>   -6.1665    1.0000 </r>
       <r>   -6.0594    1.0000 </r>
       <r>   -6.0449    1.0000 </r>
       <r>   -5.9708    1.0000 </r>
       <r>   -5.8226    1.0000 </r>
       <r>   -5.6743    1.0000 </r>
       <r>   -5.5369    1.0000 </r>
       <r>   -5.4237    1.0000 </r>
       <r>   -5.3652    1.0000 </r>
       <r>   -5.3368    1.0000 </r>
       <r>   -5.2904    1.0000 </r>
       <r>   -5.1672    1.0000 </r>
       <r>   -5.0462    1.0000 </r>
       <r>   -5.0109    1.0000 </r>
       <r>   -4.9618    1.0000 </r>
       <r>   -4.7528    1.0000 </r>
       <r>   -4.6983    1.0000 </r>
       <r>   -4.6594    1.0000 </r>
       <r>   -4.6442    1.0000 </r>
       <r>   -4.5036    1.0000 </r>
       <r>   -4.4527    1.0000 </r>
       <r>   -4.3969    1.0000 </r>
       <r>   -4.3299    1.0000 </r>
       <r>   -4.2017    1.0000 </r>
       <r>   -4.1319    1.0000 </r>
       <r>   -4.0726    1.0000 </r>
       <r>   -3.9641    1.0000 </r>
       <r>   -3.8782    1.0000 </r>
       <r>   -3.7821    1.0000 </r>
       <r>   -3.7575    1.0000 </r>
       <r>   -3.7223    1.0000 </r>
       <r>   -3.6694    1.0000 </r>
       <r>   -3.6150    1.0000 </r>
       <r>   -3.5945    1.0000 </r>
       <r>   -3.5210    1.0000 </r>
       <r>   -3.4764    1.0000 </r>
       <r>   -3.3517    1.0000 </r>
       <r>   -3.3218    1.0000 </r>
       <r>   -3.2677    1.0000 </r>
       <r>   -3.2298    1.0000 </r>
       <r>   -3.1531    1.0000 </r>
       <r>   -3.0099    1.0000 </r>
       <r>   -2.9466    1.0000 </r>
       <r>   -2.9339    1.0000 </r>
       <r>   -2.8537    1.0000 </r>
       <r>   -2.7626    1.0000 </r>
       <r>   -2.7276    1.0000 </r>
       <r>   -2.5162    1.0000 </r>
       <r>   -2.4507    1.0000 </r>
       <r>   -2.3589    1.0000 </r>
       <r>   -2.3275    1.0000 </r>
       <r>   -2.2532    1.0000 </r>
       <r>   -2.2188    1.0000 </r>
       <r>   -2.1254    1.0000 </r>
       <r>   -2.0731    1.0000 </r>
       <r>   -1.9752    1.0000 </r>
       <r>   -1.9448    1.0000 </r>
       <r>   -1.8694    1.0000 </r>
       <r>   -1.8088    1.0000 </r>
       <r>   -1.7706    1.0000 </r>
       <r>   -1.6407    1.0000 </r>
       <r>   -1.4734    1.0000 </r>
       <r>   -1.2846    1.0015 </r>
       <r>   -1.2417    1.0036 </r>
       <r>   -1.1939    1.0084 </r>
       <r>   -1.1141    1.0238 </r>
       <r>   -0.8980    0.8724 </r>
       <r>   -0.8315    0.6427 </r>
       <r>   -0.7851    0.4491 </r>
       <r>   -0.7496    0.3048 </r>
       <r>   -0.6507    0.0294 </r>
       <r>   -0.5162   -0.0316 </r>
       <r>   -0.4938   -0.0269 </r>
       <r>   -0.1964   -0.0001 </r>
       <r>    0.6984   -0.0000 </r>
       <r>    1.0295   -0.0000 </r>
       <r>    1.0873   -0.0000 </r>
       <r>    1.8196   -0.0000 </r>
       <r>    1.9754   -0.0000 </r>
       <r>    2.0708   -0.0000 </r>
       <r>    2.4917   -0.0000 </r>
       <r>    3.0454   -0.0000 </r>
       <r>    3.5891   -0.0000 </r>
       <r>    4.0175   -0.0000 </r>
      </set>
      <set comment="kpoint 5">
       <r>   -8.5259    1.0000 </r>
       <r>   -8.1860    1.0000 </r>
       <r>   -7.4485    1.0000 </r>
       <r>   -7.2416    1.0000 </r>
       <r>   -6.6690    1.0000 </r>
       <r>   -6.6503    1.0000 </r>
       <r>   -6.5227    1.0000 </r>
       <r>   -6.4593    1.0000 </r>
       <r>   -6.4399    1.0000 </r>
       <r>   -6.3568    1.0000 </r>
       <r>   -6.3208    1.0000 </r>
       <r>   -6.1856    1.0000 </r>
       <r>   -6.1248    1.0000 </r>
       <r>   -6.0132    1.0000 </r>
       <r>   -5.8734    1.0000 </r>
       <r>   -5.7602    1.0000 </r>
       <r>   -5.6782    1.0000 </r>
       <r>   -5.6392    1.0000 </r>
       <r>   -5.5569    1.0000 </r>
       <r>   -5.4813    1.0000 </r>
       <r>   -5.3364    1.0000 </r>
       <r>   -5.2620    1.0000 </r>
       <r>   -5.2241    1.0000 </r>
       <r>   -5.1784    1.0000 </r>
       <r>   -5.1029    1.0000 </r>
       <r>   -5.0355    1.0000 </r>
       <r>   -5.0088    1.0000 </r>
       <r>   -4.8998    1.0000 </r>
       <r>   -4.7704    1.0000 </r>
       <r>   -4.6837    1.0000 </r>
       <r>   -4.6451    1.0000 </r>
       <r>   -4.5617    1.0000 </r>
       <r>   -4.5409    1.0000 </r>
       <r>   -4.4636    1.0000 </r>
       <r>   -4.3993    1.0000 </r>
       <r>   -4.2432    1.0000 </r>
       <r>   -4.1148    1.0000 </r>
       <r>   -4.0694    1.0000 </r>
       <r>   -4.0374    1.0000 </r>
       <r>   -3.9517    1.0000 </r>
       <r>   -3.8602    1.0000 </r>
       <r>   -3.8381    1.0000 </r>
       <r>   -3.7499    1.0000 </r>
       <r>   -3.6732    1.0000 </r>
       <r>   -3.6556    1.0000 </r>
       <r>   -3.6200    1.0000 </r>
       <r>   -3.6059    1.0000 </r>
       <r>   -3.5913    1.0000 </r>
       <r>   -3.5261    1.0000 </r>
       <r>   -3.4364    1.0000 </r>
       <r>   -3.3965    1.0000 </r>
       <r>   -3.3022    1.0000 </r>
       <r>   -3.0792    1.0000 </r>
       <r>   -3.0517    1.0000 </r>
       <r>   -2.9782    1.0000 </r>
       <r>   -2.9145    1.0000 </r>
       <r>   -2.8156    1.0000 </r>
       <r>   -2.7906    1.0000 </r>
       <r>   -2.7076    1.0000 </r>
       <r>   -2.6308    1.0000 </r>
       <r>   -2.5736    1.0000 </r>
       <r>   -2.4457    1.0000 </r>
       <r>   -2.3545    1.0000 </r>
       <r>   -2.2923    1.0000 </r>
       <r>   -2.2467    1.0000 </r>
       <r>   -2.2115    1.0000 </r>
       <r>   -2.1478    1.0000 </r>
       <r>   -2.1267    1.0000 </r>
       <r>   -2.0181    1.0000 </r>
       <r>   -1.9628    1.0000 </r>
       <r>   -1.8773    1.0000 </r>
       <r>   -1.8332    1.0000 </r>
       <r>   -1.8069    1.0000 </r>
       <r>   -1.6205    1.0000 </r>
       <r>   -1.3988    1.0001 </r>
       <r>   -1.2606    1.0025 </r>
       <r>   -1.2055    1.0070 </r>
       <r>   -1.1225    1.0218 </r>
       <r>   -0.8760    0.8067 </r>
       <r>   -0.8079    0.5455 </r>
       <r>   -0.7706    0.3885 </r>
       <r>   -0.6881    0.1061 </r>
       <r>   -0.5881   -0.0292 </r>
       <r>   -0.5179   -0.0319 </r>
       <r>   -0.4931   -0.0267 </r>
       <r>   -0.3928   -0.0074 </r>
       <r>    0.7254   -0.0000 </r>
       <r>    1.1035   -0.0000 </r>
       <r>    1.3548   -0.0000 </r>
       <r>    1.6648   -0.0000 </r>
       <r>    1.8340   -0.0000 </r>
       <r>    2.1009   -0.0000 </r>
       <r>    2.5244   -0.0000 </r>
       <r>    3.5949   -0.0000 </r>
       <r>    3.6393   -0.0000 </r>
       <r>    4.0305   -0.0000 </r>
      </set>
      <set comment="kpoint 6">
       <r>   -9.2130    1.0000 </r>
       <r>   -7.9901    1.0000 </r>
       <r>   -7.6653    1.0000 </r>
       <r>   -7.0933    1.0000 </r>
       <r>   -6.9644    1.0000 </r>
       <r>   -6.9200    1.0000 </r>
       <r>   -6.8331    1.0000 </r>
       <r>   -6.6979    1.0000 </r>
       <r>   -6.6902    1.0000 </r>
       <r>   -6.6282    1.0000 </r>
       <r>   -6.6134    1.0000 </r>
       <r>   -6.3513    1.0000 </r>
       <r>   -6.3183    1.0000 </r>
       <r>   -6.2430    1.0000 </r>
       <r>   -6.1783    1.0000 </r>
       <r>   -6.1285    1.0000 </r>
       <r>   -5.9519    1.0000 </r>
       <r>   -5.8294    1.0000 </r>
       <r>   -5.7080    1.0000 </r>
       <r>   -5.4856    1.0000 </r>
       <r>   -5.4531    1.0000 </r>
       <r>   -5.4217    1.0000 </r>
       <r>   -5.2080    1.0000 </r>
       <r>   -5.1372    1.0000 </r>
       <r>   -4.9941    1.0000 </r>
       <r>   -4.9382    1.0000 </r>
       <r>   -4.8557    1.0000 </r>
       <r>   -4.7394    1.0000 </r>
       <r>   -4.5944    1.0000 </r>
       <r>   -4.5531    1.0000 </r>
       <r>   -4.4677    1.0000 </r>
       <r>   -4.3758    1.0000 </r>
       <r>   -4.3300    1.0000 </r>
       <r>   -4.2569    1.0000 </r>
       <r>   -4.2184    1.0000 </r>
       <r>   -4.1549    1.0000 </r>
       <r>   -4.1054    1.0000 </r>
       <r>   -4.0807    1.0000 </r>
       <r>   -3.9823    1.0000 </r>
       <r>   -3.8294    1.0000 </r>
       <r>   -3.7873    1.0000 </r>
       <r>   -3.7652    1.0000 </r>
       <r>   -3.7236    1.0000 </r>
       <r>   -3.6631    1.0000 </r>
       <r>   -3.5811    1.0000 </r>
       <r>   -3.5627    1.0000 </r>
       <r>   -3.4706    1.0000 </r>
       <r>   -3.2788    1.0000 </r>
       <r>   -3.1938    1.0000 </r>
       <r>   -3.1250    1.0000 </r>
       <r>   -3.1000    1.0000 </r>
       <r>   -2.9854    1.0000 </r>
       <r>   -2.9440    1.0000 </r>
       <r>   -2.9057    1.0000 </r>
       <r>   -2.8769    1.0000 </r>
       <r>   -2.7831    1.0000 </r>
       <r>   -2.7457    1.0000 </r>
       <r>   -2.7150    1.0000 </r>
       <r>   -2.6309    1.0000 </r>
       <r>   -2.5288    1.0000 </r>
       <r>   -2.2736    1.0000 </r>
       <r>   -2.2247    1.0000 </r>
       <r>   -2.1623    1.0000 </r>
       <r>   -2.1163    1.0000 </r>
       <r>   -2.0725    1.0000 </r>
       <r>   -1.9871    1.0000 </r>
       <r>   -1.9080    1.0000 </r>
       <r>   -1.8520    1.0000 </r>
       <r>   -1.7958    1.0000 </r>
       <r>   -1.6922    1.0000 </r>
       <r>   -1.6440    1.0000 </r>
       <r>   -1.5632    1.0000 </r>
       <r>   -1.4790    1.0000 </r>
       <r>   -1.3069    1.0009 </r>
       <r>   -1.2120    1.0063 </r>
       <r>   -1.1808    1.0103 </r>
       <r>   -1.0963    1.0279 </r>
       <r>   -1.0341    1.0352 </r>
       <r>   -0.9690    1.0037 </r>
       <r>   -0.8494    0.7130 </r>
       <r>   -0.8066    0.5399 </r>
       <r>   -0.7711    0.3909 </r>
       <r>   -0.6530    0.0330 </r>
       <r>   -0.5140   -0.0312 </r>
       <r>   -0.4935   -0.0268 </r>
       <r>    0.0387   -0.0000 </r>
       <r>    0.6418   -0.0000 </r>
       <r>    0.7144   -0.0000 </r>
       <r>    1.0256   -0.0000 </r>
       <r>    1.7901   -0.0000 </r>
       <r>    2.0045   -0.0000 </r>
       <r>    2.2962   -0.0000 </r>
       <r>    2.4238   -0.0000 </r>
       <r>    2.4961   -0.0000 </r>
       <r>    3.4717   -0.0000 </r>
       <r>    3.9871   -0.0000 </r>
      </set>
      <set comment="kpoint 7">
       <r>   -9.7709    1.0000 </r>
       <r>   -8.5086    1.0000 </r>
       <r>   -7.4565    1.0000 </r>
       <r>   -7.4466    1.0000 </r>
       <r>   -7.3306    1.0000 </r>
       <r>   -7.2344    1.0000 </r>
       <r>   -7.1565    1.0000 </r>
       <r>   -7.0745    1.0000 </r>
       <r>   -7.0283    1.0000 </r>
       <r>   -6.9484    1.0000 </r>
       <r>   -6.6964    1.0000 </r>
       <r>   -6.6283    1.0000 </r>
       <r>   -6.6069    1.0000 </r>
       <r>   -6.5905    1.0000 </r>
       <r>   -6.4988    1.0000 </r>
       <r>   -6.3685    1.0000 </r>
       <r>   -6.2901    1.0000 </r>
       <r>   -6.1987    1.0000 </r>
       <r>   -6.1114    1.0000 </r>
       <r>   -5.6644    1.0000 </r>
       <r>   -5.6483    1.0000 </r>
       <r>   -5.5715    1.0000 </r>
       <r>   -5.0046    1.0000 </r>
       <r>   -4.9225    1.0000 </r>
       <r>   -4.8734    1.0000 </r>
       <r>   -4.7925    1.0000 </r>
       <r>   -4.7203    1.0000 </r>
       <r>   -4.5970    1.0000 </r>
       <r>   -4.5286    1.0000 </r>
       <r>   -4.4972    1.0000 </r>
       <r>   -4.4573    1.0000 </r>
       <r>   -4.2341    1.0000 </r>
       <r>   -4.1757    1.0000 </r>
       <r>   -4.1323    1.0000 </r>
       <r>   -4.0539    1.0000 </r>
       <r>   -4.0169    1.0000 </r>
       <r>   -3.9872    1.0000 </r>
       <r>   -3.9404    1.0000 </r>
       <r>   -3.9143    1.0000 </r>
       <r>   -3.8174    1.0000 </r>
       <r>   -3.7805    1.0000 </r>
       <r>   -3.7663    1.0000 </r>
       <r>   -3.7091    1.0000 </r>
       <r>   -3.6695    1.0000 </r>
       <r>   -3.6153    1.0000 </r>
       <r>   -3.4764    1.0000 </r>
       <r>   -3.3638    1.0000 </r>
       <r>   -3.2586    1.0000 </r>
       <r>   -2.9868    1.0000 </r>
       <r>   -2.8613    1.0000 </r>
       <r>   -2.7228    1.0000 </r>
       <r>   -2.5491    1.0000 </r>
       <r>   -2.5315    1.0000 </r>
       <r>   -2.4806    1.0000 </r>
       <r>   -2.3450    1.0000 </r>
       <r>   -2.3084    1.0000 </r>
       <r>   -2.1680    1.0000 </r>
       <r>   -2.1029    1.0000 </r>
       <r>   -2.0874    1.0000 </r>
       <r>   -2.0229    1.0000 </r>
       <r>   -1.9630    1.0000 </r>
       <r>   -1.8851    1.0000 </r>
       <r>   -1.8268    1.0000 </r>
       <r>   -1.7761    1.0000 </r>
       <r>   -1.7558    1.0000 </r>
       <r>   -1.5744    1.0000 </r>
       <r>   -1.4292    1.0000 </r>
       <r>   -1.3448    1.0004 </r>
       <r>   -1.3258    1.0006 </r>
       <r>   -1.2747    1.0019 </r>
       <r>   -1.2339    1.0042 </r>
       <r>   -1.1984    1.0078 </r>
       <r>   -1.1279    1.0206 </r>
       <r>   -1.0612    1.0342 </r>
       <r>   -1.0168    1.0325 </r>
       <r>   -0.9840    1.0169 </r>
       <r>   -0.9526    0.9840 </r>
       <r>   -0.8364    0.6623 </r>
       <r>   -0.8051    0.5335 </r>
       <r>   -0.7708    0.3893 </r>
       <r>   -0.6495    0.0275 </r>
       <r>   -0.5687   -0.0343 </r>
       <r>   -0.4991   -0.0281 </r>
       <r>   -0.4661   -0.0205 </r>
       <r>   -0.2839   -0.0009 </r>
       <r>    0.0459   -0.0000 </r>
       <r>    0.4363   -0.0000 </r>
       <r>    0.6898   -0.0000 </r>
       <r>    0.8740   -0.0000 </r>
       <r>    1.3751   -0.0000 </r>
       <r>    1.5805   -0.0000 </r>
       <r>    1.7871   -0.0000 </r>
       <r>    2.2108   -0.0000 </r>
       <r>    2.9108   -0.0000 </r>
       <r>    3.0672   -0.0000 </r>
       <r>    3.6393   -0.0000 </r>
      </set>
      <set comment="kpoint 8">
       <r>  -10.1047    1.0000 </r>
       <r>   -8.8352    1.0000 </r>
       <r>   -7.7771    1.0000 </r>
       <r>   -7.6459    1.0000 </r>
       <r>   -7.4205    1.0000 </r>
       <r>   -7.4165    1.0000 </r>
       <r>   -7.3462    1.0000 </r>
       <r>   -7.2598    1.0000 </r>
       <r>   -7.2477    1.0000 </r>
       <r>   -7.2067    1.0000 </r>
       <r>   -6.7988    1.0000 </r>
       <r>   -6.7796    1.0000 </r>
       <r>   -6.7707    1.0000 </r>
       <r>   -6.7629    1.0000 </r>
       <r>   -6.7351    1.0000 </r>
       <r>   -6.5459    1.0000 </r>
       <r>   -6.4775    1.0000 </r>
       <r>   -6.4450    1.0000 </r>
       <r>   -6.4104    1.0000 </r>
       <r>   -5.7576    1.0000 </r>
       <r>   -5.7535    1.0000 </r>
       <r>   -5.6577    1.0000 </r>
       <r>   -4.9166    1.0000 </r>
       <r>   -4.8945    1.0000 </r>
       <r>   -4.8115    1.0000 </r>
       <r>   -4.6670    1.0000 </r>
       <r>   -4.6307    1.0000 </r>
       <r>   -4.6124    1.0000 </r>
       <r>   -4.5991    1.0000 </r>
       <r>   -4.5400    1.0000 </r>
       <r>   -4.3954    1.0000 </r>
       <r>   -4.2579    1.0000 </r>
       <r>   -4.1848    1.0000 </r>
       <r>   -4.1449    1.0000 </r>
       <r>   -4.0820    1.0000 </r>
       <r>   -4.0222    1.0000 </r>
       <r>   -3.9831    1.0000 </r>
       <r>   -3.9490    1.0000 </r>
       <r>   -3.9186    1.0000 </r>
       <r>   -3.8539    1.0000 </r>
       <r>   -3.6984    1.0000 </r>
       <r>   -3.6013    1.0000 </r>
       <r>   -3.5475    1.0000 </r>
       <r>   -3.4983    1.0000 </r>
       <r>   -3.4799    1.0000 </r>
       <r>   -3.2874    1.0000 </r>
       <r>   -3.1966    1.0000 </r>
       <r>   -2.9867    1.0000 </r>
       <r>   -2.9027    1.0000 </r>
       <r>   -2.7436    1.0000 </r>
       <r>   -2.6877    1.0000 </r>
       <r>   -2.3852    1.0000 </r>
       <r>   -2.3579    1.0000 </r>
       <r>   -2.1543    1.0000 </r>
       <r>   -2.0572    1.0000 </r>
       <r>   -1.8744    1.0000 </r>
       <r>   -1.8224    1.0000 </r>
       <r>   -1.7738    1.0000 </r>
       <r>   -1.7283    1.0000 </r>
       <r>   -1.6676    1.0000 </r>
       <r>   -1.6627    1.0000 </r>
       <r>   -1.6027    1.0000 </r>
       <r>   -1.3573    1.0003 </r>
       <r>   -1.3314    1.0005 </r>
       <r>   -1.2491    1.0032 </r>
       <r>   -1.2001    1.0076 </r>
       <r>   -1.1270    1.0208 </r>
       <r>   -1.0087    1.0301 </r>
       <r>   -0.9840    1.0169 </r>
       <r>   -0.9478    0.9771 </r>
       <r>   -0.9084    0.8995 </r>
       <r>   -0.8721    0.7938 </r>
       <r>   -0.8189    0.5913 </r>
       <r>   -0.7725    0.3965 </r>
       <r>   -0.7354    0.2518 </r>
       <r>   -0.7245    0.2138 </r>
       <r>   -0.6279   -0.0010 </r>
       <r>   -0.6070   -0.0192 </r>
       <r>   -0.5878   -0.0293 </r>
       <r>   -0.5589   -0.0353 </r>
       <r>   -0.4471   -0.0164 </r>
       <r>   -0.3592   -0.0041 </r>
       <r>   -0.2659   -0.0006 </r>
       <r>   -0.1512   -0.0000 </r>
       <r>    0.1165   -0.0000 </r>
       <r>    0.1513   -0.0000 </r>
       <r>    0.3855   -0.0000 </r>
       <r>    0.8290   -0.0000 </r>
       <r>    0.9249   -0.0000 </r>
       <r>    0.9520   -0.0000 </r>
       <r>    1.4733   -0.0000 </r>
       <r>    1.5351   -0.0000 </r>
       <r>    2.0044   -0.0000 </r>
       <r>    2.2607   -0.0000 </r>
       <r>    2.5126   -0.0000 </r>
       <r>    3.2260   -0.0000 </r>
      </set>
      <set comment="kpoint 9">
       <r>   -9.9026    1.0000 </r>
       <r>   -8.6366    1.0000 </r>
       <r>   -7.5772    1.0000 </r>
       <r>   -7.4625    1.0000 </r>
       <r>   -7.4518    1.0000 </r>
       <r>   -7.2311    1.0000 </r>
       <r>   -7.2279    1.0000 </r>
       <r>   -7.2083    1.0000 </r>
       <r>   -7.0804    1.0000 </r>
       <r>   -7.0638    1.0000 </r>
       <r>   -6.7356    1.0000 </r>
       <r>   -6.6928    1.0000 </r>
       <r>   -6.6675    1.0000 </r>
       <r>   -6.6671    1.0000 </r>
       <r>   -6.5707    1.0000 </r>
       <r>   -6.4424    1.0000 </r>
       <r>   -6.3766    1.0000 </r>
       <r>   -6.2662    1.0000 </r>
       <r>   -6.2494    1.0000 </r>
       <r>   -5.7030    1.0000 </r>
       <r>   -5.6883    1.0000 </r>
       <r>   -5.6048    1.0000 </r>
       <r>   -4.9578    1.0000 </r>
       <r>   -4.9068    1.0000 </r>
       <r>   -4.8450    1.0000 </r>
       <r>   -4.7506    1.0000 </r>
       <r>   -4.6712    1.0000 </r>
       <r>   -4.5682    1.0000 </r>
       <r>   -4.5445    1.0000 </r>
       <r>   -4.5112    1.0000 </r>
       <r>   -4.4870    1.0000 </r>
       <r>   -4.2085    1.0000 </r>
       <r>   -4.1397    1.0000 </r>
       <r>   -4.1163    1.0000 </r>
       <r>   -4.0969    1.0000 </r>
       <r>   -4.0162    1.0000 </r>
       <r>   -4.0110    1.0000 </r>
       <r>   -3.9567    1.0000 </r>
       <r>   -3.8743    1.0000 </r>
       <r>   -3.8256    1.0000 </r>
       <r>   -3.7992    1.0000 </r>
       <r>   -3.6885    1.0000 </r>
       <r>   -3.6376    1.0000 </r>
       <r>   -3.6209    1.0000 </r>
       <r>   -3.4885    1.0000 </r>
       <r>   -3.4587    1.0000 </r>
       <r>   -3.4073    1.0000 </r>
       <r>   -3.1186    1.0000 </r>
       <r>   -2.9747    1.0000 </r>
       <r>   -2.8082    1.0000 </r>
       <r>   -2.6920    1.0000 </r>
       <r>   -2.4743    1.0000 </r>
       <r>   -2.4428    1.0000 </r>
       <r>   -2.3825    1.0000 </r>
       <r>   -2.1775    1.0000 </r>
       <r>   -2.0933    1.0000 </r>
       <r>   -2.0057    1.0000 </r>
       <r>   -1.9995    1.0000 </r>
       <r>   -1.9109    1.0000 </r>
       <r>   -1.8988    1.0000 </r>
       <r>   -1.8404    1.0000 </r>
       <r>   -1.7512    1.0000 </r>
       <r>   -1.6976    1.0000 </r>
       <r>   -1.6972    1.0000 </r>
       <r>   -1.5257    1.0000 </r>
       <r>   -1.4394    1.0000 </r>
       <r>   -1.2667    1.0022 </r>
       <r>   -1.2630    1.0024 </r>
       <r>   -1.2088    1.0066 </r>
       <r>   -1.1245    1.0214 </r>
       <r>   -1.1241    1.0215 </r>
       <r>   -1.0715    1.0327 </r>
       <r>   -1.0313    1.0350 </r>
       <r>   -0.9918    1.0221 </r>
       <r>   -0.9511    0.9819 </r>
       <r>   -0.8926    0.8574 </r>
       <r>   -0.8087    0.5487 </r>
       <r>   -0.7908    0.4732 </r>
       <r>   -0.7510    0.3104 </r>
       <r>   -0.6954    0.1252 </r>
       <r>   -0.6042   -0.0211 </r>
       <r>   -0.4579   -0.0187 </r>
       <r>   -0.4336   -0.0137 </r>
       <r>   -0.3737   -0.0054 </r>
       <r>   -0.2584   -0.0005 </r>
       <r>   -0.1633   -0.0000 </r>
       <r>    0.7928   -0.0000 </r>
       <r>    0.8834   -0.0000 </r>
       <r>    0.9207   -0.0000 </r>
       <r>    1.0445   -0.0000 </r>
       <r>    1.5161   -0.0000 </r>
       <r>    1.5201   -0.0000 </r>
       <r>    2.2570   -0.0000 </r>
       <r>    2.2883   -0.0000 </r>
       <r>    3.1991   -0.0000 </r>
       <r>    3.6585   -0.0000 </r>
      </set>
      <set comment="kpoint 10">
       <r>   -9.5775    1.0000 </r>
       <r>   -8.3228    1.0000 </r>
       <r>   -7.4074    1.0000 </r>
       <r>   -7.2660    1.0000 </r>
       <r>   -7.2591    1.0000 </r>
       <r>   -7.1522    1.0000 </r>
       <r>   -7.0577    1.0000 </r>
       <r>   -6.9706    1.0000 </r>
       <r>   -6.8907    1.0000 </r>
       <r>   -6.8093    1.0000 </r>
       <r>   -6.6215    1.0000 </r>
       <r>   -6.5501    1.0000 </r>
       <r>   -6.5117    1.0000 </r>
       <r>   -6.4735    1.0000 </r>
       <r>   -6.4247    1.0000 </r>
       <r>   -6.2444    1.0000 </r>
       <r>   -6.1759    1.0000 </r>
       <r>   -6.0767    1.0000 </r>
       <r>   -5.9371    1.0000 </r>
       <r>   -5.6022    1.0000 </r>
       <r>   -5.5910    1.0000 </r>
       <r>   -5.5219    1.0000 </r>
       <r>   -5.0927    1.0000 </r>
       <r>   -4.9772    1.0000 </r>
       <r>   -4.8924    1.0000 </r>
       <r>   -4.8354    1.0000 </r>
       <r>   -4.8026    1.0000 </r>
       <r>   -4.6959    1.0000 </r>
       <r>   -4.5164    1.0000 </r>
       <r>   -4.4706    1.0000 </r>
       <r>   -4.4032    1.0000 </r>
       <r>   -4.2658    1.0000 </r>
       <r>   -4.2251    1.0000 </r>
       <r>   -4.1816    1.0000 </r>
       <r>   -4.1073    1.0000 </r>
       <r>   -4.0637    1.0000 </r>
       <r>   -4.0261    1.0000 </r>
       <r>   -3.9137    1.0000 </r>
       <r>   -3.8788    1.0000 </r>
       <r>   -3.8522    1.0000 </r>
       <r>   -3.8202    1.0000 </r>
       <r>   -3.8109    1.0000 </r>
       <r>   -3.7633    1.0000 </r>
       <r>   -3.7527    1.0000 </r>
       <r>   -3.6176    1.0000 </r>
       <r>   -3.5168    1.0000 </r>
       <r>   -3.4293    1.0000 </r>
       <r>   -3.2301    1.0000 </r>
       <r>   -3.0411    1.0000 </r>
       <r>   -2.9409    1.0000 </r>
       <r>   -2.8115    1.0000 </r>
       <r>   -2.7484    1.0000 </r>
       <r>   -2.6397    1.0000 </r>
       <r>   -2.6166    1.0000 </r>
       <r>   -2.5623    1.0000 </r>
       <r>   -2.5228    1.0000 </r>
       <r>   -2.4809    1.0000 </r>
       <r>   -2.3847    1.0000 </r>
       <r>   -2.3014    1.0000 </r>
       <r>   -2.2526    1.0000 </r>
       <r>   -2.1230    1.0000 </r>
       <r>   -2.0375    1.0000 </r>
       <r>   -1.9645    1.0000 </r>
       <r>   -1.9230    1.0000 </r>
       <r>   -1.8137    1.0000 </r>
       <r>   -1.7332    1.0000 </r>
       <r>   -1.6494    1.0000 </r>
       <r>   -1.5800    1.0000 </r>
       <r>   -1.5115    1.0000 </r>
       <r>   -1.4463    1.0000 </r>
       <r>   -1.4176    1.0001 </r>
       <r>   -1.3214    1.0007 </r>
       <r>   -1.1733    1.0115 </r>
       <r>   -1.0977    1.0275 </r>
       <r>   -1.0532    1.0350 </r>
       <r>   -1.0049    1.0287 </r>
       <r>   -0.9774    1.0116 </r>
       <r>   -0.9206    0.9275 </r>
       <r>   -0.8515    0.7209 </r>
       <r>   -0.8161    0.5796 </r>
       <r>   -0.6821    0.0914 </r>
       <r>   -0.6066   -0.0195 </r>
       <r>   -0.5766   -0.0328 </r>
       <r>   -0.4990   -0.0281 </r>
       <r>   -0.2280   -0.0002 </r>
       <r>   -0.0137   -0.0000 </r>
       <r>    0.2974   -0.0000 </r>
       <r>    0.3344   -0.0000 </r>
       <r>    0.7071   -0.0000 </r>
       <r>    1.2554   -0.0000 </r>
       <r>    1.8003   -0.0000 </r>
       <r>    2.2426   -0.0000 </r>
       <r>    2.8251   -0.0000 </r>
       <r>    2.9861   -0.0000 </r>
       <r>    3.3474   -0.0000 </r>
       <r>    3.4053   -0.0000 </r>
      </set>
      <set comment="kpoint 11">
       <r>   -9.0307    1.0000 </r>
       <r>   -7.8194    1.0000 </r>
       <r>   -7.4722    1.0000 </r>
       <r>   -7.2334    1.0000 </r>
       <r>   -6.9083    1.0000 </r>
       <r>   -6.7854    1.0000 </r>
       <r>   -6.7660    1.0000 </r>
       <r>   -6.6728    1.0000 </r>
       <r>   -6.5277    1.0000 </r>
       <r>   -6.4820    1.0000 </r>
       <r>   -6.4593    1.0000 </r>
       <r>   -6.3586    1.0000 </r>
       <r>   -6.2409    1.0000 </r>
       <r>   -6.2012    1.0000 </r>
       <r>   -6.0630    1.0000 </r>
       <r>   -5.9722    1.0000 </r>
       <r>   -5.8619    1.0000 </r>
       <r>   -5.7481    1.0000 </r>
       <r>   -5.6347    1.0000 </r>
       <r>   -5.4654    1.0000 </r>
       <r>   -5.4025    1.0000 </r>
       <r>   -5.3565    1.0000 </r>
       <r>   -5.2495    1.0000 </r>
       <r>   -5.1910    1.0000 </r>
       <r>   -5.0910    1.0000 </r>
       <r>   -4.9921    1.0000 </r>
       <r>   -4.8980    1.0000 </r>
       <r>   -4.8195    1.0000 </r>
       <r>   -4.6868    1.0000 </r>
       <r>   -4.6155    1.0000 </r>
       <r>   -4.5564    1.0000 </r>
       <r>   -4.4964    1.0000 </r>
       <r>   -4.3919    1.0000 </r>
       <r>   -4.3458    1.0000 </r>
       <r>   -4.2192    1.0000 </r>
       <r>   -4.1819    1.0000 </r>
       <r>   -4.1515    1.0000 </r>
       <r>   -4.0848    1.0000 </r>
       <r>   -4.0170    1.0000 </r>
       <r>   -4.0040    1.0000 </r>
       <r>   -3.9037    1.0000 </r>
       <r>   -3.8692    1.0000 </r>
       <r>   -3.7637    1.0000 </r>
       <r>   -3.6634    1.0000 </r>
       <r>   -3.5952    1.0000 </r>
       <r>   -3.5626    1.0000 </r>
       <r>   -3.4604    1.0000 </r>
       <r>   -3.4124    1.0000 </r>
       <r>   -3.2903    1.0000 </r>
       <r>   -3.2674    1.0000 </r>
       <r>   -3.1690    1.0000 </r>
       <r>   -3.1131    1.0000 </r>
       <r>   -3.0018    1.0000 </r>
       <r>   -2.9489    1.0000 </r>
       <r>   -2.8961    1.0000 </r>
       <r>   -2.8617    1.0000 </r>
       <r>   -2.8115    1.0000 </r>
       <r>   -2.7423    1.0000 </r>
       <r>   -2.6885    1.0000 </r>
       <r>   -2.5442    1.0000 </r>
       <r>   -2.4813    1.0000 </r>
       <r>   -2.3260    1.0000 </r>
       <r>   -2.2445    1.0000 </r>
       <r>   -2.1966    1.0000 </r>
       <r>   -2.0813    1.0000 </r>
       <r>   -2.0184    1.0000 </r>
       <r>   -1.9349    1.0000 </r>
       <r>   -1.8560    1.0000 </r>
       <r>   -1.7648    1.0000 </r>
       <r>   -1.6663    1.0000 </r>
       <r>   -1.5499    1.0000 </r>
       <r>   -1.4767    1.0000 </r>
       <r>   -1.2796    1.0017 </r>
       <r>   -1.2433    1.0035 </r>
       <r>   -1.1862    1.0095 </r>
       <r>   -1.1285    1.0205 </r>
       <r>   -1.0401    1.0354 </r>
       <r>   -0.9777    1.0118 </r>
       <r>   -0.9440    0.9713 </r>
       <r>   -0.8714    0.7915 </r>
       <r>   -0.8149    0.5748 </r>
       <r>   -0.7442    0.2845 </r>
       <r>   -0.7148    0.1821 </r>
       <r>   -0.6841    0.0961 </r>
       <r>   -0.5523   -0.0355 </r>
       <r>   -0.3617   -0.0043 </r>
       <r>   -0.0951   -0.0000 </r>
       <r>    0.3522   -0.0000 </r>
       <r>    0.8209   -0.0000 </r>
       <r>    0.9046   -0.0000 </r>
       <r>    2.5236   -0.0000 </r>
       <r>    2.7986   -0.0000 </r>
       <r>    2.9189   -0.0000 </r>
       <r>    2.9802   -0.0000 </r>
       <r>    3.5946   -0.0000 </r>
       <r>    3.8919   -0.0000 </r>
      </set>
      <set comment="kpoint 12">
       <r>   -8.3484    1.0000 </r>
       <r>   -8.0055    1.0000 </r>
       <r>   -7.2810    1.0000 </r>
       <r>   -7.0832    1.0000 </r>
       <r>   -7.0694    1.0000 </r>
       <r>   -6.5829    1.0000 </r>
       <r>   -6.4464    1.0000 </r>
       <r>   -6.3313    1.0000 </r>
       <r>   -6.2851    1.0000 </r>
       <r>   -6.2006    1.0000 </r>
       <r>   -6.1492    1.0000 </r>
       <r>   -6.1183    1.0000 </r>
       <r>   -6.0128    1.0000 </r>
       <r>   -5.8828    1.0000 </r>
       <r>   -5.8272    1.0000 </r>
       <r>   -5.7731    1.0000 </r>
       <r>   -5.6377    1.0000 </r>
       <r>   -5.5930    1.0000 </r>
       <r>   -5.5251    1.0000 </r>
       <r>   -5.4522    1.0000 </r>
       <r>   -5.3958    1.0000 </r>
       <r>   -5.3088    1.0000 </r>
       <r>   -5.2551    1.0000 </r>
       <r>   -5.2220    1.0000 </r>
       <r>   -5.1959    1.0000 </r>
       <r>   -5.1253    1.0000 </r>
       <r>   -5.0940    1.0000 </r>
       <r>   -5.0583    1.0000 </r>
       <r>   -4.8409    1.0000 </r>
       <r>   -4.7624    1.0000 </r>
       <r>   -4.6804    1.0000 </r>
       <r>   -4.5972    1.0000 </r>
       <r>   -4.5348    1.0000 </r>
       <r>   -4.4581    1.0000 </r>
       <r>   -4.4162    1.0000 </r>
       <r>   -4.3649    1.0000 </r>
       <r>   -4.2900    1.0000 </r>
       <r>   -4.2585    1.0000 </r>
       <r>   -4.1987    1.0000 </r>
       <r>   -4.1295    1.0000 </r>
       <r>   -4.0797    1.0000 </r>
       <r>   -3.9793    1.0000 </r>
       <r>   -3.8728    1.0000 </r>
       <r>   -3.7933    1.0000 </r>
       <r>   -3.7072    1.0000 </r>
       <r>   -3.6822    1.0000 </r>
       <r>   -3.6587    1.0000 </r>
       <r>   -3.5940    1.0000 </r>
       <r>   -3.5399    1.0000 </r>
       <r>   -3.3883    1.0000 </r>
       <r>   -3.3750    1.0000 </r>
       <r>   -3.2215    1.0000 </r>
       <r>   -3.1210    1.0000 </r>
       <r>   -3.0061    1.0000 </r>
       <r>   -2.9389    1.0000 </r>
       <r>   -2.8916    1.0000 </r>
       <r>   -2.8649    1.0000 </r>
       <r>   -2.7515    1.0000 </r>
       <r>   -2.6596    1.0000 </r>
       <r>   -2.5652    1.0000 </r>
       <r>   -2.4486    1.0000 </r>
       <r>   -2.4369    1.0000 </r>
       <r>   -2.3460    1.0000 </r>
       <r>   -2.3030    1.0000 </r>
       <r>   -2.1478    1.0000 </r>
       <r>   -2.0768    1.0000 </r>
       <r>   -2.0377    1.0000 </r>
       <r>   -1.8939    1.0000 </r>
       <r>   -1.8598    1.0000 </r>
       <r>   -1.8207    1.0000 </r>
       <r>   -1.7392    1.0000 </r>
       <r>   -1.6654    1.0000 </r>
       <r>   -1.5665    1.0000 </r>
       <r>   -1.4718    1.0000 </r>
       <r>   -1.3323    1.0005 </r>
       <r>   -1.2958    1.0012 </r>
       <r>   -1.2513    1.0030 </r>
       <r>   -1.1584    1.0142 </r>
       <r>   -1.0171    1.0326 </r>
       <r>   -0.9837    1.0167 </r>
       <r>   -0.9451    0.9730 </r>
       <r>   -0.8899    0.8494 </r>
       <r>   -0.7550    0.3260 </r>
       <r>   -0.7442    0.2842 </r>
       <r>   -0.4049   -0.0090 </r>
       <r>   -0.2853   -0.0009 </r>
       <r>   -0.1992   -0.0001 </r>
       <r>   -0.0235   -0.0000 </r>
       <r>    0.8890   -0.0000 </r>
       <r>    1.5152   -0.0000 </r>
       <r>    1.8310   -0.0000 </r>
       <r>    2.8765   -0.0000 </r>
       <r>    2.9544   -0.0000 </r>
       <r>    3.8530   -0.0000 </r>
       <r>    3.8729   -0.0000 </r>
       <r>    4.4087   -0.0000 </r>
      </set>
      <set comment="kpoint 13">
       <r>   -8.6981    1.0000 </r>
       <r>   -7.7046    1.0000 </r>
       <r>   -7.5368    1.0000 </r>
       <r>   -7.1409    1.0000 </r>
       <r>   -6.9509    1.0000 </r>
       <r>   -6.6479    1.0000 </r>
       <r>   -6.5630    1.0000 </r>
       <r>   -6.4137    1.0000 </r>
       <r>   -6.3907    1.0000 </r>
       <r>   -6.3813    1.0000 </r>
       <r>   -6.3005    1.0000 </r>
       <r>   -6.2118    1.0000 </r>
       <r>   -6.0916    1.0000 </r>
       <r>   -6.0377    1.0000 </r>
       <r>   -5.9013    1.0000 </r>
       <r>   -5.8648    1.0000 </r>
       <r>   -5.6942    1.0000 </r>
       <r>   -5.6434    1.0000 </r>
       <r>   -5.5230    1.0000 </r>
       <r>   -5.4186    1.0000 </r>
       <r>   -5.3972    1.0000 </r>
       <r>   -5.3339    1.0000 </r>
       <r>   -5.2641    1.0000 </r>
       <r>   -5.1967    1.0000 </r>
       <r>   -5.1544    1.0000 </r>
       <r>   -5.0856    1.0000 </r>
       <r>   -5.0216    1.0000 </r>
       <r>   -4.9296    1.0000 </r>
       <r>   -4.8025    1.0000 </r>
       <r>   -4.7619    1.0000 </r>
       <r>   -4.6384    1.0000 </r>
       <r>   -4.5788    1.0000 </r>
       <r>   -4.4943    1.0000 </r>
       <r>   -4.4431    1.0000 </r>
       <r>   -4.3281    1.0000 </r>
       <r>   -4.2734    1.0000 </r>
       <r>   -4.2068    1.0000 </r>
       <r>   -4.1332    1.0000 </r>
       <r>   -4.0706    1.0000 </r>
       <r>   -4.0355    1.0000 </r>
       <r>   -3.9486    1.0000 </r>
       <r>   -3.9062    1.0000 </r>
       <r>   -3.8777    1.0000 </r>
       <r>   -3.7792    1.0000 </r>
       <r>   -3.7459    1.0000 </r>
       <r>   -3.6597    1.0000 </r>
       <r>   -3.5992    1.0000 </r>
       <r>   -3.5079    1.0000 </r>
       <r>   -3.4440    1.0000 </r>
       <r>   -3.3621    1.0000 </r>
       <r>   -3.2216    1.0000 </r>
       <r>   -3.1767    1.0000 </r>
       <r>   -3.1095    1.0000 </r>
       <r>   -3.0144    1.0000 </r>
       <r>   -2.9233    1.0000 </r>
       <r>   -2.8982    1.0000 </r>
       <r>   -2.8387    1.0000 </r>
       <r>   -2.7580    1.0000 </r>
       <r>   -2.7181    1.0000 </r>
       <r>   -2.6020    1.0000 </r>
       <r>   -2.5088    1.0000 </r>
       <r>   -2.3587    1.0000 </r>
       <r>   -2.3188    1.0000 </r>
       <r>   -2.2676    1.0000 </r>
       <r>   -2.1866    1.0000 </r>
       <r>   -2.0535    1.0000 </r>
       <r>   -2.0080    1.0000 </r>
       <r>   -1.9404    1.0000 </r>
       <r>   -1.8134    1.0000 </r>
[...]
       <r>   -4.4421    1.0000 </r>
       <r>   -4.4295    1.0000 </r>
       <r>   -4.2905    1.0000 </r>
       <r>   -4.2165    1.0000 </r>
       <r>   -4.1446    1.0000 </r>
       <r>   -4.1122    1.0000 </r>
       <r>   -4.0796    1.0000 </r>
       <r>   -3.9868    1.0000 </r>
       <r>   -3.9468    1.0000 </r>
       <r>   -3.8075    1.0000 </r>
       <r>   -3.7104    1.0000 </r>
       <r>   -3.6843    1.0000 </r>
       <r>   -3.6480    1.0000 </r>
       <r>   -3.6311    1.0000 </r>
       <r>   -3.5985    1.0000 </r>
       <r>   -3.5739    1.0000 </r>
       <r>   -3.4193    1.0000 </r>
       <r>   -3.3923    1.0000 </r>
       <r>   -3.2640    1.0000 </r>
       <r>   -3.1230    1.0000 </r>
       <r>   -2.9729    1.0000 </r>
       <r>   -2.9392    1.0000 </r>
       <r>   -2.9091    1.0000 </r>
       <r>   -2.8578    1.0000 </r>
       <r>   -2.7678    1.0000 </r>
       <r>   -2.6771    1.0000 </r>
       <r>   -2.5745    1.0000 </r>
       <r>   -2.4951    1.0000 </r>
       <r>   -2.4752    1.0000 </r>
       <r>   -2.4054    1.0000 </r>
       <r>   -2.3016    1.0000 </r>
       <r>   -2.2067    1.0000 </r>
       <r>   -2.1492    1.0000 </r>
       <r>   -2.1148    1.0000 </r>
       <r>   -2.0710    1.0000 </r>
       <r>   -1.9518    1.0000 </r>
       <r>   -1.8820    1.0000 </r>
       <r>   -1.8532    1.0000 </r>
       <r>   -1.7706    1.0000 </r>
       <r>   -1.7055    1.0000 </r>
       <r>   -1.5847    1.0000 </r>
       <r>   -1.4042    1.0001 </r>
       <r>   -1.2775    1.0018 </r>
       <r>   -1.2364    1.0040 </r>
       <r>   -1.1391    1.0181 </r>
       <r>   -0.9554    0.9878 </r>
       <r>   -0.8881    0.8442 </r>
       <r>   -0.8412    0.6813 </r>
       <r>   -0.7702    0.3869 </r>
       <r>   -0.6185   -0.0102 </r>
       <r>   -0.5976   -0.0249 </r>
       <r>   -0.4338   -0.0138 </r>
       <r>   -0.3744   -0.0054 </r>
       <r>    0.2159   -0.0000 </r>
       <r>    0.5166   -0.0000 </r>
       <r>    1.4718   -0.0000 </r>
       <r>    1.5545   -0.0000 </r>
       <r>    1.5926   -0.0000 </r>
       <r>    2.3642   -0.0000 </r>
       <r>    3.1805   -0.0000 </r>
       <r>    3.4365   -0.0000 </r>
       <r>    3.9555   -0.0000 </r>
       <r>    4.0007   -0.0000 </r>
      </set>
     </set>
    </set>
   </array>
  </eigenvalues>
  <separator name="orbital magnetization" >
   <v name="MAGDIPOLOUT">      0.00000000      0.00000000      0.00000000</v>
  </separator>
  <dos>
   <i name="efermi">     -0.79717248 </i>
   <total>
    <array>
     <dimension dim="1">gridpoints</dimension>
     <dimension dim="2">spin</dimension>
     <field>energy</field>
     <field>total</field>
     <field>integrated</field>
     <set>
      <set comment="spin 1">
       <r>   -12.1733     0.0000     0.0000 </r>
       <r>   -12.1110     0.0000     0.0000 </r>
       <r>   -12.0488     0.0000     0.0000 </r>
       <r>   -11.9865     0.0000     0.0000 </r>
       <r>   -11.9242     0.0000     0.0000 </r>
       <r>   -11.8620     0.0000     0.0000 </r>
       <r>   -11.7997    -0.0000    -0.0000 </r>
       <r>   -11.7375    -0.0000    -0.0000 </r>
       <r>   -11.6752    -0.0000    -0.0000 </r>
       <r>   -11.6129    -0.0000    -0.0000 </r>
       <r>   -11.5507    -0.0000    -0.0000 </r>
       <r>   -11.4884    -0.0000    -0.0000 </r>
       <r>   -11.4261    -0.0000    -0.0000 </r>
       <r>   -11.3639    -0.0000    -0.0000 </r>
       <r>   -11.3016    -0.0000    -0.0000 </r>
       <r>   -11.2393    -0.0000    -0.0000 </r>
       <r>   -11.1771    -0.0000    -0.0000 </r>
       <r>   -11.1148    -0.0000    -0.0000 </r>
       <r>   -11.0526    -0.0000    -0.0000 </r>
       <r>   -10.9903    -0.0000    -0.0000 </r>
       <r>   -10.9280    -0.0000    -0.0000 </r>
       <r>   -10.8658    -0.0000    -0.0000 </r>
       <r>   -10.8035    -0.0000    -0.0000 </r>
       <r>   -10.7412    -0.0002    -0.0000 </r>
       <r>   -10.6790    -0.0010    -0.0001 </r>
       <r>   -10.6167    -0.0035    -0.0003 </r>
       <r>   -10.5544    -0.0097    -0.0009 </r>
       <r>   -10.4922    -0.0203    -0.0022 </r>
       <r>   -10.4299    -0.0284    -0.0039 </r>
       <r>   -10.3677    -0.0126    -0.0047 </r>
       <r>   -10.3054     0.0573    -0.0011 </r>
       <r>   -10.2431     0.1971     0.0111 </r>
       <r>   -10.1809     0.3874     0.0353 </r>
       <r>   -10.1186     0.5851     0.0717 </r>
       <r>   -10.0563     0.7547     0.1187 </r>
       <r>    -9.9941     0.8770     0.1733 </r>
       <r>    -9.9318     0.9342     0.2314 </r>
       <r>    -9.8696     0.9139     0.2883 </r>
       <r>    -9.8073     0.8348     0.3403 </r>
       <r>    -9.7450     0.7580     0.3875 </r>
       <r>    -9.6828     0.7592     0.4348 </r>
       <r>    -9.6205     0.8678     0.4888 </r>
       <r>    -9.5582     1.0184     0.5522 </r>
       <r>    -9.4960     1.0948     0.6204 </r>
       <r>    -9.4337     1.0437     0.6854 </r>
       <r>    -9.3714     0.9200     0.7427 </r>
       <r>    -9.3092     0.8081     0.7930 </r>
       <r>    -9.2469     0.7437     0.8393 </r>
       <r>    -9.1847     0.7360     0.8851 </r>
       <r>    -9.1224     0.8222     0.9363 </r>
       <r>    -9.0601     1.0381     1.0009 </r>
       <r>    -8.9979     1.3374     1.0842 </r>
       <r>    -8.9356     1.6002     1.1838 </r>
       <r>    -8.8733     1.7470     1.2926 </r>
       <r>    -8.8111     1.8075     1.4052 </r>
       <r>    -8.7488     1.8449     1.5200 </r>
       <r>    -8.6865     1.8559     1.6356 </r>
       <r>    -8.6243     1.8018     1.7478 </r>
       <r>    -8.5620     1.7192     1.8548 </r>
       <r>    -8.4998     1.7385     1.9631 </r>
       <r>    -8.4375     1.9665     2.0855 </r>
       <r>    -8.3752     2.3520     2.2319 </r>
       <r>    -8.3130     2.6800     2.3988 </r>
       <r>    -8.2507     2.7439     2.5696 </r>
       <r>    -8.1884     2.5437     2.7280 </r>
       <r>    -8.1262     2.2723     2.8695 </r>
       <r>    -8.0639     2.1016     3.0004 </r>
       <r>    -8.0016     2.0623     3.1288 </r>
       <r>    -7.9394     2.1694     3.2638 </r>
       <r>    -7.8771     2.5569     3.4230 </r>
       <r>    -7.8149     3.3494     3.6316 </r>
       <r>    -7.7526     4.4027     3.9057 </r>
       <r>    -7.6903     5.3298     4.2376 </r>
       <r>    -7.6281     5.8968     4.6047 </r>
       <r>    -7.5658     6.3097     4.9976 </r>
       <r>    -7.5035     6.9827     5.4324 </r>
       <r>    -7.4413     8.1062     5.9371 </r>
       <r>    -7.3790     9.5776     6.5334 </r>
       <r>    -7.3168    11.2023     7.2309 </r>
       <r>    -7.2545    12.7312     8.0236 </r>
       <r>    -7.1922    13.7957     8.8826 </r>
       <r>    -7.1300    14.0597     9.7580 </r>
       <r>    -7.0677    13.5163    10.5995 </r>
       <r>    -7.0054    12.6196    11.3853 </r>
       <r>    -6.9432    12.1281    12.1404 </r>
       <r>    -6.8809    12.7165    12.9322 </r>
       <r>    -6.8186    14.5637    13.8390 </r>
       <r>    -6.7564    17.2359    14.9121 </r>
       <r>    -6.6941    19.9997    16.1574 </r>
       <r>    -6.6319    22.2898    17.5452 </r>
       <r>    -6.5696    23.8658    19.0312 </r>
       <r>    -6.5073    24.6032    20.5631 </r>
       <r>    -6.4451    24.4098    22.0829 </r>
       <r>    -6.3828    23.5051    23.5464 </r>
       <r>    -6.3205    22.5268    24.9490 </r>
       <r>    -6.2583    22.0209    26.3201 </r>
       <r>    -6.1960    21.8469    27.6804 </r>
       <r>    -6.1337    21.2948    29.0063 </r>
       <r>    -6.0715    19.8284    30.2409 </r>
       <r>    -6.0092    17.6462    31.3396 </r>
       <r>    -5.9470    15.5416    32.3073 </r>
       <r>    -5.8847    14.3184    33.1988 </r>
       <r>    -5.8224    14.3511    34.0923 </r>
       <r>    -5.7602    15.5272    35.0591 </r>
       <r>    -5.6979    17.3700    36.1406 </r>
       <r>    -5.6356    19.1983    37.3359 </r>
       <r>    -5.5734    20.3863    38.6053 </r>
       <r>    -5.5111    20.6499    39.8910 </r>
       <r>    -5.4488    20.1379    41.1449 </r>
       <r>    -5.3866    19.3045    42.3468 </r>
       <r>    -5.3243    18.6912    43.5106 </r>
       <r>    -5.2621    18.6658    44.6728 </r>
       <r>    -5.1998    19.2110    45.8689 </r>
       <r>    -5.1375    19.9759    47.1127 </r>
       <r>    -5.0753    20.5861    48.3945 </r>
       <r>    -5.0130    20.9054    49.6961 </r>
       <r>    -4.9507    21.0490    51.0067 </r>
       <r>    -4.8885    21.2401    52.3292 </r>
       <r>    -4.8262    21.6904    53.6797 </r>
       <r>    -4.7640    22.5655    55.0847 </r>
       <r>    -4.7017    23.9558    56.5763 </r>
       <r>    -4.6394    25.7425    58.1791 </r>
       <r>    -4.5772    27.4271    59.8868 </r>
       <r>    -4.5149    28.2350    61.6448 </r>
       <r>    -4.4526    27.6915    63.3690 </r>
       <r>    -4.3904    26.2847    65.0055 </r>
       <r>    -4.3281    25.3895    66.5864 </r>
       <r>    -4.2658    26.2002    68.2177 </r>
       <r>    -4.2036    28.6236    69.9999 </r>
       <r>    -4.1413    31.3271    71.9504 </r>
       <r>    -4.0791    32.9142    73.9998 </r>
       <r>    -4.0168    33.0351    76.0567 </r>
       <r>    -3.9545    32.4637    78.0780 </r>
       <r>    -3.8923    32.2793    80.0878 </r>
       <r>    -3.8300    32.9918    82.1420 </r>
       <r>    -3.7677    34.2681    84.2756 </r>
       <r>    -3.7055    35.2624    86.4712 </r>
       <r>    -3.6432    35.1223    88.6580 </r>
       <r>    -3.5809    33.3715    90.7358 </r>
       <r>    -3.5187    30.1270    92.6116 </r>
       <r>    -3.4564    26.0815    94.2356 </r>
       <r>    -3.3942    22.1860    95.6169 </r>
       <r>    -3.3319    19.2104    96.8130 </r>
       <r>    -3.2696    17.4877    97.9019 </r>
       <r>    -3.2074    16.9947    98.9600 </r>
       <r>    -3.1451    17.6436   100.0586 </r>
       <r>    -3.0828    19.4116   101.2672 </r>
       <r>    -3.0206    22.0877   102.6425 </r>
       <r>    -2.9583    24.9837   104.1980 </r>
       <r>    -2.8960    27.1384   105.8878 </r>
       <r>    -2.8338    27.8964   107.6247 </r>
       <r>    -2.7715    27.2247   109.3198 </r>
       <r>    -2.7093    25.5795   110.9125 </r>
       <r>    -2.6470    23.6681   112.3861 </r>
       <r>    -2.5847    22.2074   113.7688 </r>
       <r>    -2.5225    21.5846   115.1128 </r>
       <r>    -2.4602    21.6900   116.4633 </r>
       <r>    -2.3979    22.1541   117.8427 </r>
       <r>    -2.3357    22.6776   119.2546 </r>
       <r>    -2.2734    23.1695   120.6973 </r>
       <r>    -2.2111    23.7404   122.1754 </r>
       <r>    -2.1489    24.5568   123.7044 </r>
       <r>    -2.0866    25.6073   125.2988 </r>
       <r>    -2.0244    26.7023   126.9614 </r>
       <r>    -1.9621    27.7016   128.6862 </r>
       <r>    -1.8998    28.4983   130.4606 </r>
       <r>    -1.8376    28.7524   132.2508 </r>
       <r>    -1.7753    28.0160   133.9952 </r>
       <r>    -1.7130    26.3027   135.6329 </r>
       <r>    -1.6508    24.2322   137.1416 </r>
       <r>    -1.5885    22.4056   138.5367 </r>
       <r>    -1.5263    20.9187   139.8392 </r>
       <r>    -1.4640    19.7547   141.0692 </r>
       <r>    -1.4017    19.4021   142.2772 </r>
       <r>    -1.3395    20.6077   143.5603 </r>
       <r>    -1.2772    23.4274   145.0190 </r>
       <r>    -1.2149    26.8690   146.6919 </r>
       <r>    -1.1527    29.6943   148.5408 </r>
       <r>    -1.0904    31.3810   150.4947 </r>
       <r>    -1.0281    32.1802   152.4983 </r>
       <r>    -0.9659    32.5515   154.5251 </r>
       <r>    -0.9036    32.7407   156.5636 </r>
       <r>    -0.8414    32.5968   158.5932 </r>
       <r>    -0.7791    31.5912   160.5602 </r>
       <r>    -0.7168    29.3128   162.3853 </r>
       <r>    -0.6546    26.1164   164.0114 </r>
       <r>    -0.5923    22.9424   165.4399 </r>
       <r>    -0.5300    20.3132   166.7047 </r>
       <r>    -0.4678    17.8569   167.8165 </r>
       <r>    -0.4055    15.0266   168.7521 </r>
       <r>    -0.3432    11.9442   169.4958 </r>
       <r>    -0.2810     9.2585   170.0723 </r>
       <r>    -0.2187     7.4299   170.5349 </r>
       <r>    -0.1565     6.4583   170.9370 </r>
       <r>    -0.0942     6.1418   171.3194 </r>
       <r>    -0.0319     6.2348   171.7076 </r>
       <r>     0.0303     6.3591   172.1035 </r>
       <r>     0.0926     6.1145   172.4842 </r>
       <r>     0.1549     5.4618   172.8243 </r>
       <r>     0.2171     4.8283   173.1249 </r>
       <r>     0.2794     4.6480   173.4143 </r>
       <r>     0.3417     4.8515   173.7164 </r>
       <r>     0.4039     4.9414   174.0241 </r>
       <r>     0.4662     4.5701   174.3086 </r>
       <r>     0.5284     3.9402   174.5539 </r>
       <r>     0.5907     3.6055   174.7784 </r>
       <r>     0.6530     3.9447   175.0240 </r>
       <r>     0.7152     4.8750   175.3276 </r>
       <r>     0.7775     5.9839   175.7002 </r>
       <r>     0.8398     6.8101   176.1242 </r>
       <r>     0.9020     7.0443   176.5628 </r>
       <r>     0.9643     6.6538   176.9771 </r>
       <r>     1.0265     5.8949   177.3441 </r>
       <r>     1.0888     5.1176   177.6627 </r>
       <r>     1.1511     4.5127   177.9437 </r>
       <r>     1.2133     4.0728   178.1973 </r>
       <r>     1.2756     3.7591   178.4314 </r>
       <r>     1.3379     3.6265   178.6572 </r>
       <r>     1.4001     3.7645   178.8915 </r>
       <r>     1.4624     4.1520   179.1501 </r>
       <r>     1.5247     4.6299   179.4383 </r>
       <r>     1.5869     5.0648   179.7537 </r>
       <r>     1.6492     5.4919   180.0956 </r>
       <r>     1.7114     5.9805   180.4680 </r>
       <r>     1.7737     6.3620   180.8641 </r>
       <r>     1.8360     6.2744   181.2548 </r>
       <r>     1.8982     5.5975   181.6033 </r>
       <r>     1.9605     4.7300   181.8978 </r>
       <r>     2.0228     4.2818   182.1644 </r>
       <r>     2.0850     4.5095   182.4452 </r>
       <r>     2.1473     5.1140   182.7636 </r>
       <r>     2.2096     5.5572   183.1096 </r>
       <r>     2.2718     5.5410   183.4546 </r>
       <r>     2.3341     5.2188   183.7795 </r>
       <r>     2.3963     4.9618   184.0885 </r>
       <r>     2.4586     4.9039   184.3938 </r>
       <r>     2.5209     4.7675   184.6907 </r>
       <r>     2.5831     4.2277   184.9539 </r>
       <r>     2.6454     3.4143   185.1665 </r>
       <r>     2.7077     2.9333   185.3491 </r>
       <r>     2.7699     3.3469   185.5575 </r>
       <r>     2.8322     4.6270   185.8456 </r>
       <r>     2.8945     6.0795   186.2241 </r>
       <r>     2.9567     6.8202   186.6488 </r>
       <r>     3.0190     6.4295   187.0491 </r>
       <r>     3.0812     5.2249   187.3744 </r>
       <r>     3.1435     3.9411   187.6198 </r>
       <r>     3.2058     3.1766   187.8176 </r>
       <r>     3.2680     3.0886   188.0099 </r>
       <r>     3.3303     3.4498   188.2247 </r>
       <r>     3.3926     3.8873   188.4667 </r>
       <r>     3.4548     4.1308   188.7239 </r>
       <r>     3.5171     4.1188   188.9804 </r>
       <r>     3.5793     3.8966   189.2230 </r>
       <r>     3.6416     3.5077   189.4414 </r>
       <r>     3.7039     3.0968   189.6342 </r>
       <r>     3.7661     2.9899   189.8204 </r>
       <r>     3.8284     3.4242   190.0336 </r>
       <r>     3.8907     4.1870   190.2943 </r>
       <r>     3.9529     4.6961   190.5867 </r>
       <r>     4.0152     4.4902   190.8663 </r>
       <r>     4.0775     3.6118   191.0911 </r>
       <r>     4.1397     2.5400   191.2493 </r>
       <r>     4.2020     1.7912   191.3608 </r>
       <r>     4.2642     1.5693   191.4585 </r>
       <r>     4.3265     1.7262   191.5660 </r>
       <r>     4.3888     1.9504   191.6874 </r>
       <r>     4.4510     1.9608   191.8095 </r>
       <r>     4.5133     1.6347   191.9113 </r>
       <r>     4.5756     1.0654   191.9776 </r>
       <r>     4.6378     0.4879   192.0080 </r>
       <r>     4.7001     0.0982   192.0141 </r>
       <r>     4.7624    -0.0644   192.0101 </r>
       <r>     4.8246    -0.0816   192.0050 </r>
       <r>     4.8869    -0.0501   192.0019 </r>
       <r>     4.9491    -0.0216   192.0006 </r>
       <r>     5.0114    -0.0071   192.0001 </r>
       <r>     5.0737    -0.0018   192.0000 </r>
       <r>     5.1359    -0.0004   192.0000 </r>
       <r>     5.1982    -0.0001   192.0000 </r>
       <r>     5.2605    -0.0000   192.0000 </r>
       <r>     5.3227    -0.0000   192.0000 </r>
       <r>     5.3850    -0.0000   192.0000 </r>
       <r>     5.4473    -0.0000   192.0000 </r>
       <r>     5.5095    -0.0000   192.0000 </r>
       <r>     5.5718    -0.0000   192.0000 </r>
       <r>     5.6340    -0.0000   192.0000 </r>
       <r>     5.6963    -0.0000   192.0000 </r>
       <r>     5.7586    -0.0000   192.0000 </r>
       <r>     5.8208     0.0000   192.0000 </r>
       <r>     5.8831     0.0000   192.0000 </r>
       <r>     5.9454     0.0000   192.0000 </r>
       <r>     6.0076     0.0000   192.0000 </r>
       <r>     6.0699     0.0000   192.0000 </r>
       <r>     6.1321     0.0000   192.0000 </r>
       <r>     6.1944     0.0000   192.0000 </r>
       <r>     6.2567     0.0000   192.0000 </r>
       <r>     6.3189     0.0000   192.0000 </r>
       <r>     6.3812     0.0000   192.0000 </r>
       <r>     6.4435     0.0000   192.0000 </r>
       <r>     6.5057     0.0000   192.0000 </r>
      </set>
     </set>
    </array>
   </total>
  </dos>
 </calculation>
 <structure name="finalpos" >
  <crystal>
   <varray name="basis" >
    <v>       5.55785930       0.00000000       0.00000000 </v>
    <v>       2.77892965       4.81324734       0.00000000 </v>
    <v>       0.00000000       0.00000000      30.80695967 </v>
   </varray>
   <i name="volume">    824.12780743 </i>
   <varray name="rec_basis" >
    <v>       0.17992539      -0.10387997       0.00000000 </v>
    <v>       0.00000000       0.20775994       0.00000000 </v>
    <v>       0.00000000       0.00000000       0.03246020 </v>
   </varray>
  </crystal>
  <varray name="positions" >
   <v>       0.00000000       0.00000000       0.38952237 </v>
   <v>       0.50000000       0.00000000       0.38952237 </v>
   <v>       0.00000000       0.50000000       0.38952237 </v>
   <v>       0.50000000       0.50000000       0.38952237 </v>
   <v>       0.16666667       0.16666667       0.46468540 </v>
   <v>       0.66666667       0.16666667       0.46468540 </v>
   <v>       0.16666667       0.66666667       0.46468540 </v>
   <v>       0.66666667       0.66666667       0.46468540 </v>
   <v>       0.83333333       0.33333333       0.53920296 </v>
   <v>       0.33333333       0.33333333       0.53920296 </v>
   <v>       0.83333333       0.83333333       0.53920296 </v>
   <v>       0.33333333       0.83333333       0.53920296 </v>
   <v>       0.50000000       0.00000000       0.61486043 </v>
   <v>       0.00000000       0.50000000       0.61486043 </v>
   <v>       0.50000000       0.50000000       0.61486043 </v>
   <v>       0.00000000       0.00000000       0.61486043 </v>
  </varray>
  <varray name="selective"  type="logical" >
   <v type="logical" >  F  F  F </v>
   <v type="logical" >  F  F  F </v>
   <v type="logical" >  F  F  F </v>
   <v type="logical" >  F  F  F </v>
   <v type="logical" >  T  T  T </v>
   <v type="logical" >  T  T  T </v>
   <v type="logical" >  T  T  T </v>
   <v type="logical" >  T  T  T </v>
   <v type="logical" >  T  T  T </v>
   <v type="logical" >  T  T  T </v>
   <v type="logical" >  T  T  T </v>
   <v type="logical" >  T  T  T </v>
   <v type="logical" >  T  T  T </v>
   <v type="logical" >  T  T  T </v>
   <v type="logical" >  T  T  T </v>
   <v type="logical" >  T  T  T </v>
  </varray>
  <nose>
   <v>      -3.00000000       0.00000000       0.00010000       0.00010000 </v>
  </nose>
 </structure>
</modeling>
