 vasp.5.4.4.18Apr17-6-g9f103f2a35 (build Apr 28 2017 10:53:45) complex          
  
 executed on             LinuxIFC date 2020.02.16  21:13:54
 running on   24 total cores
 distrk:  each k-point on   24 cores,    1 groups
 distr:  one band on NCORES_PER_BAND=   1 cores,   24 groups


--------------------------------------------------------------------------------------------------------


 INCAR:
 POTCAR:    PAW_PBE Ir 06Sep2000                  
 POTCAR:    PAW_PBE Pt 04Feb2005                  
 POTCAR:    PAW_PBE Au 04Oct2007                  

 ----------------------------------------------------------------------------- 
|                                                                             |
|           W    W    AA    RRRRR   N    N  II  N    N   GGGG   !!!           |
|           W    W   A  A   R    R  NN   N  II  NN   N  G    G  !!!           |
|           W    W  A    A  R    R  N N  N  II  N N  N  G       !!!           |
|           W WW W  AAAAAA  RRRRR   N  N N  II  N  N N  G  GGG   !            |
|           WW  WW  A    A  R   R   N   NN  II  N   NN  G    G                |
|           W    W  A    A  R    R  N    N  II  N    N   GGGG   !!!           |
|                                                                             |
|      For optimal performance we recommend to set                            |
|        NCORE= 4 - approx SQRT( number of cores)                             |
|      NCORE specifies how many cores store one orbital (NPAR=cpu/NCORE).     |
|      This setting can  greatly improve the performance of VASP for DFT.     |
|      The default,   NCORE=1            might be grossly inefficient         |
|      on modern multi-core architectures or massively parallel machines.     |
|      Do your own testing !!!!                                               |
|      Unfortunately you need to use the default for GW and RPA calculations. |
|      (for HF NCORE is supported but not extensively tested yet)             |
|                                                                             |
 ----------------------------------------------------------------------------- 

 POTCAR:    PAW_PBE Ir 06Sep2000                  
   SHA256 =  7c6af8d4d487b237782eb51e6f62977b27a1da78c3c96acd1cebefd6c308f120 Ir
   COPYR  = (c) Copyright 06Sep2000 Georg Kresse                                
   COPYR  = This file is part of the software VASP. Any use, copying, and all ot
   COPYR  = If you do not have a valid VASP license, you may not use, copy or di
   VRHFIN =Ir: s1d8                                                             
   LEXCH  = PE                                                                  
   EATOM  =   560.1833 eV,   41.1723 Ry                                         
                                                                                
   TITEL  = PAW_PBE Ir 06Sep2000                                                
   LULTRA =        F    use ultrasoft PP ?                                      
   IUNSCR =        1    unscreen: 0-lin 1-nonlin 2-no                           
   RPACOR =    2.250    partial core radius                                     
   POMASS =  192.220; ZVAL   =    9.000    mass and valenz                      
   RCORE  =    2.600    outmost cutoff radius                                   
   RWIGS  =    2.690; RWIGS  =    1.423    wigner-seitz radius (au A)           
   ENMAX  =  210.864; ENMIN  =  158.148 eV                                      
   RCLOC  =    1.857    cutoff for local pot                                    
   LCOR   =        T    correct aug charges                                     
   LPAW   =        T    paw PP                                                  
   EAUG   =  318.962                                                            
   DEXC   =    0.000                                                            
   RMAX   =    2.667    core radius for proj-oper                               
   RAUG   =    1.300    factor for augmentation sphere                          
   RDEP   =    2.748    radius for radial grids                                 
   RDEPT  =    2.300    core radius for aug-charge                              
                                                                                
   Atomic configuration                                                         
   16 entries                                                                   
     n  l   j            E        occ.                                          
     1  0  0.50    -76100.0449   2.0000                                         
     2  0  0.50    -13308.1683   2.0000                                         
     2  1  1.50    -11558.0021   6.0000                                         
     3  0  0.50     -3110.7274   2.0000                                         
     3  1  1.50     -2599.2109   6.0000                                         
     3  2  2.50     -2037.1515  10.0000                                         
     4  0  0.50      -661.6001   2.0000                                         
     4  1  1.50      -493.8981   6.0000                                         
     4  2  2.50      -288.1909  10.0000                                         
     4  3  3.50       -59.5718  14.0000                                         
     5  0  0.50       -95.3879   2.0000                                         
     5  1  1.50       -52.2747   6.0000                                         
     5  2  2.50        -5.4180   8.0000                                         
     6  0  0.50        -5.5479   1.0000                                         
     6  1  1.50        -6.8029   0.0000                                         
     5  3  2.50        -1.3606   0.0000                                         
   Description                                                                  
     l       E           TYP  RCUT    TYP  RCUT                                 
     2     -5.4179967     23  2.600                                             
     2     -6.7785793     23  2.600                                             
     0     -5.5478636     23  2.600                                             
     0      2.2542272     23  2.600                                             
     1     -2.7211652     23  2.600                                             
     1     20.4087390     23  2.600                                             
  local pseudopotential read in
  partial core-charges read in
  partial kinetic energy density read in
  atomic valenz-charges read in
  non local Contribution for L=           2  read in
    real space projection operators read in
  non local Contribution for L=           2  read in
    real space projection operators read in
  non local Contribution for L=           0  read in
    real space projection operators read in
  non local Contribution for L=           0  read in
    real space projection operators read in
  non local Contribution for L=           1  read in
    real space projection operators read in
  non local Contribution for L=           1  read in
    real space projection operators read in
    PAW grid and wavefunctions read in
 
   number of l-projection  operators is LMAX  =           6
   number of lm-projection operators is LMMAX =          18
 
 POTCAR:    PAW_PBE Pt 04Feb2005                  
   SHA256 =  3ed90460adef76debcff1cfb73ee1349b515b1a3db03439735b44de3a8db7dc8 Pt
   COPYR  = (c) Copyright 04Feb2005 Georg Kresse                                
   COPYR  = This file is part of the software VASP. Any use, copying, and all ot
   COPYR  = If you do not have a valid VASP license, you may not use, copy or di
   VRHFIN =Pt: s1d9                                                             
   LEXCH  = PE                                                                  
   EATOM  =   729.1176 eV,   53.5886 Ry                                         
                                                                                
   TITEL  = PAW_PBE Pt 04Feb2005                                                
   LULTRA =        F    use ultrasoft PP ?                                      
   IUNSCR =        1    unscreen: 0-lin 1-nonlin 2-no                           
   RPACOR =    2.330    partial core radius                                     
   POMASS =  195.080; ZVAL   =   10.000    mass and valenz                      
   RCORE  =    2.600    outmost cutoff radius                                   
   RWIGS  =    2.750; RWIGS  =    1.455    wigner-seitz radius (au A)           
   ENMAX  =  230.283; ENMIN  =  172.712 eV                                      
   ICORE  =        3    local potential                                         
   LCOR   =        T    correct aug charges                                     
   LPAW   =        T    paw PP                                                  
   EAUG   =  358.966                                                            
   DEXC   =    0.000                                                            
   RMAX   =    2.658    core radius for proj-oper                               
   RAUG   =    1.300    factor for augmentation sphere                          
   RDEP   =    2.761    radius for radial grids                                 
   RDEPT  =    2.203    core radius for aug-charge                              
                                                                                
   Atomic configuration                                                         
   16 entries                                                                   
     n  l   j            E        occ.                                          
     1  0  0.50    -78401.1885   2.0000                                         
     2  0  0.50    -13770.7750   2.0000                                         
     2  1  1.50    -11931.0468   6.0000                                         
     3  0  0.50     -3234.7234   2.0000                                         
     3  1  1.50     -2699.2216   6.0000                                         
     3  2  2.50     -2119.5714  10.0000                                         
     4  0  0.50      -695.1528   2.0000                                         
     4  1  1.50      -519.6034   6.0000                                         
     4  2  2.50      -306.6786  10.0000                                         
     4  3  3.50       -70.1041  14.0000                                         
     5  0  0.50      -101.7747   2.0000                                         
     5  1  1.50       -55.9873   6.0000                                         
     5  2  2.50        -6.1423   9.0000                                         
     6  0  0.50        -5.6573   1.0000                                         
     6  1  1.50        -6.8029   0.0000                                         
     5  3  2.50        -1.3606   0.0000                                         
   Description                                                                  
     l       E           TYP  RCUT    TYP  RCUT                                 
     2     -6.1423404     23  2.500                                             
     2     -7.5029230     23  2.500                                             
     0     -5.6573207     23  2.500                                             
     0      0.7416693     23  2.500                                             
     1     -2.7211652     23  2.600                                             
     1     20.4087390     23  2.600                                             
     3     -1.3605826     23  2.500                                             
  local pseudopotential read in
  partial core-charges read in
  partial kinetic energy density read in
  atomic valenz-charges read in
  non local Contribution for L=           2  read in
    real space projection operators read in
  non local Contribution for L=           2  read in
    real space projection operators read in
  non local Contribution for L=           0  read in
    real space projection operators read in
  non local Contribution for L=           0  read in
    real space projection operators read in
  non local Contribution for L=           1  read in
    real space projection operators read in
  non local Contribution for L=           1  read in
    real space projection operators read in
    PAW grid and wavefunctions read in
 
   number of l-projection  operators is LMAX  =           6
   number of lm-projection operators is LMMAX =          18
 
 POTCAR:    PAW_PBE Au 04Oct2007                  
   SHA256 =  d0044ae04e2bdce24051b198fc5c053d722a5bc6fe3c3b100514a13fc5d2db88 Au
   COPYR  = (c) Copyright 04Oct2007 Georg Kresse                                
   COPYR  = This file is part of the software VASP. Any use, copying, and all ot
   COPYR  = If you do not have a valid VASP license, you may not use, copy or di
   VRHFIN =Au: s1d10                                                            
   LEXCH  = PE                                                                  
   EATOM  =   926.0867 eV,   68.0654 Ry                                         
                                                                                
   TITEL  = PAW_PBE Au 04Oct2007                                                
   LULTRA =        F    use ultrasoft PP ?                                      
   IUNSCR =        1    unscreen: 0-lin 1-nonlin 2-no                           
   RPACOR =    2.330    partial core radius                                     
   POMASS =  196.966; ZVAL   =   11.000    mass and valenz                      
   RCORE  =    2.500    outmost cutoff radius                                   
   RWIGS  =    2.840; RWIGS  =    1.503    wigner-seitz radius (au A)           
   ENMAX  =  229.943; ENMIN  =  172.457 eV                                      
   ICORE  =        3    local potential                                         
   LCOR   =        T    correct aug charges                                     
   LPAW   =        T    paw PP                                                  
   EAUG   =  356.670                                                            
   DEXC   =    0.000                                                            
   RMAX   =    2.562    core radius for proj-oper                               
   RAUG   =    1.300    factor for augmentation sphere                          
   RDEP   =    2.598    radius for radial grids                                 
   RDEPT  =    2.193    core radius for aug-charge                              
                                                                                
   Atomic configuration                                                         
   16 entries                                                                   
     n  l   j            E        occ.                                          
     1  0  0.50    -80748.5001   2.0000                                         
     2  0  0.50    -14244.7466   2.0000                                         
     2  1  1.50    -12310.9591   6.0000                                         
     3  0  0.50     -3362.1768   2.0000                                         
     3  1  1.50     -2801.5463   6.0000                                         
     3  2  2.50     -2203.8206  10.0000                                         
     4  0  0.50      -729.8168   2.0000                                         
     4  1  1.50      -546.0527   6.0000                                         
     4  2  2.50      -325.7302  10.0000                                         
     4  3  3.50       -81.1472  14.0000                                         
     5  0  0.50      -108.3201   2.0000                                         
     5  1  1.50       -59.7479   6.0000                                         
     5  2  2.50        -6.8783  10.0000                                         
     6  0  0.50        -5.7602   1.0000                                         
     6  1  1.50        -6.8029   0.0000                                         
     5  3  2.50        -1.3606   0.0000                                         
   Description                                                                  
     l       E           TYP  RCUT    TYP  RCUT                                 
     2     -6.8782861     23  2.500                                             
     2     -8.2388687     23  2.500                                             
     0     -5.7601759     23  2.500                                             
     0     -0.8493231     23  2.500                                             
     1     -2.7211652     23  2.500                                             
     1     27.2116520     23  2.500                                             
     3     -1.3605826     23  2.500                                             
  local pseudopotential read in
  partial core-charges read in
  partial kinetic energy density read in
  atomic valenz-charges read in
  non local Contribution for L=           2  read in
    real space projection operators read in
  non local Contribution for L=           2  read in
    real space projection operators read in
  non local Contribution for L=           0  read in
    real space projection operators read in
  non local Contribution for L=           0  read in
    real space projection operators read in
  non local Contribution for L=           1  read in
    real space projection operators read in
  non local Contribution for L=           1  read in
    real space projection operators read in
    PAW grid and wavefunctions read in
 
   number of l-projection  operators is LMAX  =           6
   number of lm-projection operators is LMMAX =          18
 
  PAW_PBE Ir 06Sep2000                  :
 energy of atom  1       EATOM= -560.1833
 kinetic energy error for atom=    0.0056 (will be added to EATOM!!)
  PAW_PBE Pt 04Feb2005                  :
 energy of atom  2       EATOM= -729.1176
 kinetic energy error for atom=    0.0144 (will be added to EATOM!!)
  PAW_PBE Au 04Oct2007                  :
 energy of atom  3       EATOM= -926.0867
 kinetic energy error for atom=    0.0152 (will be added to EATOM!!)
 
 
 POSCAR: Ir Pt Au                                
  positions in cartesian coordinates
  No initial velocities read in
 exchange correlation table for  LEXCH =        8
   RHO(1)=    0.500       N(1)  =     2000
   RHO(2)=  100.500       N(2)  =     4000
 


--------------------------------------------------------------------------------------------------------


 ion  position               nearest neighbor table
   1  0.000  0.000  0.390-   3 2.78   3 2.78   4 2.78   4 2.78   2 2.78   2 2.78   5 2.82   6 2.82
                             7 2.82
   2  0.500  0.000  0.390-   4 2.78   3 2.78   4 2.78   3 2.78   1 2.78   1 2.78   6 2.82   5 2.82
                             8 2.82
   3  0.000  0.500  0.390-   1 2.78   1 2.78   2 2.78   2 2.78   4 2.78   4 2.78   7 2.82   5 2.82
                             8 2.82
   4  0.500  0.500  0.390-   2 2.78   1 2.78   2 2.78   1 2.78   3 2.78   3 2.78   8 2.82   7 2.82
                             6 2.82
   5  0.167  0.167  0.465-   7 2.78   7 2.78   8 2.78   8 2.78   6 2.78   6 2.78   9 2.80  12 2.80
                            10 2.80   1 2.82   3 2.82   2 2.82
   6  0.667  0.167  0.465-   8 2.78   7 2.78   8 2.78   7 2.78   5 2.78   5 2.78  10 2.80  11 2.80
                             9 2.80   2 2.82   4 2.82   1 2.82
   7  0.167  0.667  0.465-   5 2.78   5 2.78   6 2.78   6 2.78   8 2.78   8 2.78  10 2.80  11 2.80
                            12 2.80   3 2.82   4 2.82   1 2.82
   8  0.667  0.667  0.465-   6 2.78   5 2.78   6 2.78   5 2.78   7 2.78   7 2.78   9 2.80  12 2.80
                            11 2.80   4 2.82   2 2.82   3 2.82
   9  0.833  0.333  0.539-  11 2.78  11 2.78  12 2.78  12 2.78  10 2.78  10 2.78   5 2.80   8 2.80
                             6 2.80  15 2.83  13 2.83  16 2.83
  10  0.333  0.333  0.539-  12 2.78  11 2.78  12 2.78  11 2.78   9 2.78   9 2.78   6 2.80   7 2.80
                             5 2.80  16 2.83  14 2.83  15 2.83
  11  0.833  0.833  0.539-   9 2.78   9 2.78  10 2.78  10 2.78  12 2.78  12 2.78   6 2.80   7 2.80
                             8 2.80  13 2.83  15 2.83  14 2.83
  12  0.333  0.833  0.539-  10 2.78   9 2.78  10 2.78   9 2.78  11 2.78  11 2.78   5 2.80   8 2.80
                             7 2.80  14 2.83  16 2.83  13 2.83
  13  0.000  0.000  0.615-  15 2.78  15 2.78  16 2.78  16 2.78  14 2.78  14 2.78  11 2.83   9 2.83
                            12 2.83
  14  0.500  0.000  0.615-  16 2.78  15 2.78  16 2.78  15 2.78  13 2.78  13 2.78  12 2.83  10 2.83
                            11 2.83
  15  0.000  0.500  0.615-  13 2.78  13 2.78  14 2.78  14 2.78  16 2.78  16 2.78   9 2.83  11 2.83
                            10 2.83
  16  0.500  0.500  0.615-  14 2.78  13 2.78  14 2.78  13 2.78  15 2.78  15 2.78  10 2.83  12 2.83
                             9 2.83
 
  LATTYP: Found a hexagonal cell.
 ALAT       =     5.5578593001
 C/A-ratio  =     5.5429542221
  
  Lattice vectors:
  
 A1 = (   2.7789296501,  -4.8132473446,   0.0000000000)
 A2 = (  -5.5578593001,   0.0000000000,   0.0000000000)
 A3 = (   0.0000000000,   0.0000000000, -30.8069596737)


Analysis of symmetry for initial positions (statically):
=====================================================================
 Subroutine PRICEL returns:
 Original cell was already a primitive cell.
 

 Routine SETGRP: Setting up the symmetry group for a 
 hexagonal supercell.


 Subroutine GETGRP returns: Found  2 space group operations
 (whereof  2 operations were pure point group operations)
 out of a pool of 24 trial point group operations.


The static configuration has the point symmetry C_1h.


Analysis of symmetry for dynamics (positions and initial velocities):
=====================================================================
 Subroutine PRICEL returns:
 Original cell was already a primitive cell.
 

 Routine SETGRP: Setting up the symmetry group for a 
 hexagonal supercell.


 Subroutine GETGRP returns: Found  2 space group operations
 (whereof  2 operations were pure point group operations)
 out of a pool of 24 trial point group operations.


The dynamic configuration has the point symmetry C_1h.


Analysis of constrained symmetry for selective dynamics:
=====================================================================
 Subroutine PRICEL returns:
 Original cell was already a primitive cell.
 

 Routine SETGRP: Setting up the symmetry group for a 
 hexagonal supercell.


 Subroutine GETGRP returns: Found  2 space group operations
 (whereof  2 operations were pure point group operations)
 out of a pool of 24 trial point group operations.


The constrained configuration has the point symmetry C_1h.


 Subroutine INISYM returns: Found  2 space group operations
 (whereof  2 operations are pure point group operations),
 and found     1 'primitive' translations

 
 
 KPOINTS: KPOINTS created by Atomic Simulation Env

Automatic generation of k-mesh.
Space group operators:
 irot       det(A)        alpha          n_x          n_y          n_z        tau_x        tau_y        tau_z
    1     1.000000     0.000001     1.000000     0.000000     0.000000     0.000000     0.000000     0.000000
    2    -1.000000   180.000000     0.500000    -0.866025     0.000000     0.000000     0.000000     0.000000
 
 Subroutine IBZKPT returns following result:
 ===========================================
 
 Found     52 irreducible k-points:
 
 Following reciprocal coordinates:
            Coordinates               Weight
  0.062500  0.062500  0.000000     16.000000
  0.000000  0.062500  0.000000     32.000000
  0.187500  0.062500  0.000000     32.000000
  0.125000  0.187500  0.000000     32.000000
 -0.062500  0.125000  0.000000     32.000000
  0.312500  0.062500  0.000000     32.000000
  0.250000  0.312500  0.000000     32.000000
 -0.062500  0.250000  0.000000     32.000000
  0.437500  0.062500  0.000000     32.000000
  0.375000  0.437500  0.000000     32.000000
 -0.062500  0.375000  0.000000     32.000000
 -0.437500  0.062500  0.000000     32.000000
  0.500000 -0.437500  0.000000     32.000000
 -0.062500  0.500000  0.000000     32.000000
 -0.312500  0.062500  0.000000     32.000000
 -0.375000 -0.312500  0.000000     32.000000
 -0.062500 -0.375000  0.000000     32.000000
 -0.187500  0.062500  0.000000     32.000000
 -0.250000 -0.187500  0.000000     32.000000
 -0.062500 -0.250000  0.000000     32.000000
 -0.062500  0.062500  0.000000     16.000000
 -0.125000 -0.062500  0.000000     32.000000
  0.187500  0.187500  0.000000     16.000000
  0.000000  0.187500  0.000000     32.000000
  0.312500  0.187500  0.000000     32.000000
  0.125000  0.312500  0.000000     32.000000
 -0.187500  0.125000  0.000000     32.000000
  0.437500  0.187500  0.000000     32.000000
  0.250000  0.437500  0.000000     32.000000
 -0.187500  0.250000  0.000000     32.000000
 -0.437500  0.187500  0.000000     32.000000
  0.375000 -0.437500  0.000000     32.000000
 -0.187500  0.375000  0.000000     32.000000
 -0.312500  0.187500  0.000000     32.000000
  0.500000 -0.312500  0.000000     32.000000
 -0.187500  0.500000  0.000000     32.000000
 -0.187500  0.187500  0.000000     16.000000
 -0.375000 -0.187500  0.000000     32.000000
  0.312500  0.312500  0.000000     16.000000
  0.000000  0.312500  0.000000     32.000000
  0.437500  0.312500  0.000000     32.000000
  0.125000  0.437500  0.000000     32.000000
 -0.312500  0.125000  0.000000     32.000000
 -0.437500  0.312500  0.000000     32.000000
  0.250000 -0.437500  0.000000     32.000000
 -0.312500  0.250000  0.000000     32.000000
 -0.312500  0.312500  0.000000     16.000000
  0.375000 -0.312500  0.000000     32.000000
  0.437500  0.437500  0.000000     16.000000
  0.000000  0.437500  0.000000     32.000000
 -0.437500  0.437500  0.000000     16.000000
  0.125000 -0.437500  0.000000     32.000000
 
 Following cartesian coordinates:
            Coordinates               Weight
  0.011245  0.006492  0.000000     16.000000
  0.000000  0.012985  0.000000     32.000000
  0.033736 -0.006492  0.000000     32.000000
  0.022491  0.025970  0.000000     32.000000
 -0.011245  0.032462  0.000000     32.000000
  0.056227 -0.019477  0.000000     32.000000
  0.044981  0.038955  0.000000     32.000000
 -0.011245  0.058432  0.000000     32.000000
  0.078717 -0.032462  0.000000     32.000000
  0.067472  0.051940  0.000000     32.000000
 -0.011245  0.084402  0.000000     32.000000
 -0.078717  0.058432  0.000000     32.000000
  0.089963 -0.142835  0.000000     32.000000
 -0.011245  0.110372  0.000000     32.000000
 -0.056227  0.045447  0.000000     32.000000
 -0.067472 -0.025970  0.000000     32.000000
 -0.011245 -0.071417  0.000000     32.000000
 -0.033736  0.032462  0.000000     32.000000
 -0.044981 -0.012985  0.000000     32.000000
 -0.011245 -0.045447  0.000000     32.000000
 -0.011245  0.019477  0.000000     16.000000
 -0.022491  0.000000  0.000000     32.000000
  0.033736  0.019477  0.000000     16.000000
  0.000000  0.038955  0.000000     32.000000
  0.056227  0.006492  0.000000     32.000000
  0.022491  0.051940  0.000000     32.000000
 -0.033736  0.045447  0.000000     32.000000
  0.078717 -0.006492  0.000000     32.000000
  0.044981  0.064925  0.000000     32.000000
 -0.033736  0.071417  0.000000     32.000000
 -0.078717  0.084402  0.000000     32.000000
  0.067472 -0.129850  0.000000     32.000000
 -0.033736  0.097387  0.000000     32.000000
 -0.056227  0.071417  0.000000     32.000000
  0.089963 -0.116865  0.000000     32.000000
 -0.033736  0.123357  0.000000     32.000000
 -0.033736  0.058432  0.000000     16.000000
 -0.067472  0.000000  0.000000     32.000000
  0.056227  0.032462  0.000000     16.000000
  0.000000  0.064925  0.000000     32.000000
  0.078717  0.019477  0.000000     32.000000
  0.022491  0.077910  0.000000     32.000000
 -0.056227  0.058432  0.000000     32.000000
 -0.078717  0.110372  0.000000     32.000000
  0.044981 -0.116865  0.000000     32.000000
 -0.056227  0.084402  0.000000     32.000000
 -0.056227  0.097387  0.000000     16.000000
  0.067472 -0.103880  0.000000     32.000000
  0.078717  0.045447  0.000000     16.000000
  0.000000  0.090895  0.000000     32.000000
 -0.078717  0.136342  0.000000     16.000000
  0.022491 -0.103880  0.000000     32.000000
 


--------------------------------------------------------------------------------------------------------




 Dimension of arrays:
   k-points           NKPTS =     52   k-points in BZ     NKDIM =     52   number of bands    NBANDS=     96
   number of dos      NEDOS =    301   number of ions     NIONS =     16
   non local maximal  LDIM  =      6   non local SUM 2l+1 LMDIM =     18
   total plane-waves  NPLWV = 112896
   max r-space proj   IRMAX =      1   max aug-charges    IRDMAX=  10104
   dimension x,y,z NGX =    28 NGY =   28 NGZ =  144
   dimension x,y,z NGXF=    56 NGYF=   56 NGZF=  288
   support grid    NGXF=    56 NGYF=   56 NGZF=  288
   ions per type =               1  14   1
   NGX,Y,Z   is equivalent  to a cutoff of   8.38,  8.38,  7.77 a.u.
   NGXF,Y,Z  is equivalent  to a cutoff of  16.75, 16.75, 15.54 a.u.

 SYSTEM =  unknown system                          
 POSCAR =  Ir Pt Au                                

 Startparameter for this run:
   NWRITE =      2    write-flag & timer
   PREC   = normal    normal or accurate (medium, high low for compatibility)
   ISTART =      0    job   : 0-new  1-cont  2-samecut
   ICHARG =      2    charge: 1-file 2-atom 10-const
   ISPIN  =      1    spin polarized calculation?
   LNONCOLLINEAR =      F non collinear calculations
   LSORBIT =      F    spin-orbit coupling
   INIWAV =      1    electr: 0-lowe 1-rand  2-diag
   LASPH  =      F    aspherical Exc in radial PAW
   METAGGA=      F    non-selfconsistent MetaGGA calc.

 Electronic Relaxation 1
   ENCUT  =  350.0 eV  25.72 Ry    5.07 a.u.   8.48  8.48 46.99*2*pi/ulx,y,z
   ENINI  =  350.0     initial cutoff
   ENAUG  =  359.0 eV  augmentation charge cutoff
   NELM   =     60;   NELMIN=  2; NELMDL= -5     # of ELM steps 
   EDIFF  = 0.1E-04   stopping-criterion for ELM
   LREAL  =      F    real-space projection
   NLSPLINE    = F    spline interpolate recip. space projectors
   LCOMPAT=      F    compatible to vasp.4.4
   GGA_COMPAT  = T    GGA compatible to vasp.4.4-vasp.4.6
   LMAXPAW     = -100 max onsite density
   LMAXMIX     =    2 max onsite mixed and CHGCAR
   VOSKOWN=      0    Vosko Wilk Nusair interpolation
   ROPT   =    0.00000   0.00000   0.00000
 Ionic relaxation
   EDIFFG = -.5E-01   stopping-criterion for IOM
   NSW    =      0    number of steps for IOM
   NBLOCK =      1;   KBLOCK =      1    inner block; outer block 
   IBRION =     -1    ionic relax: 0-MD 1-quasi-New 2-CG
   NFREE  =      1    steps in history (QN), initial steepest desc. (CG)
   ISIF   =      2    stress and relaxation
   IWAVPR =     10    prediction:  0-non 1-charg 2-wave 3-comb
   ISYM   =      2    0-nonsym 1-usesym 2-fastsym
   LCORR  =      T    Harris-Foulkes like correction to forces

   POTIM  = 0.5000    time-step for ionic-motion
   TEIN   =    0.0    initial temperature
   TEBEG  =    0.0;   TEEND  =   0.0 temperature during run
   SMASS  =  -3.00    Nose mass-parameter (am)
   estimated Nose-frequenzy (Omega)   =  0.10E-29 period in steps =****** mass=  -0.706E-27a.u.
   SCALEE = 1.0000    scale energy and forces
   NPACO  =    256;   APACO  = 16.0  distance and # of slots for P.C.
   PSTRESS=    0.0 pullay stress

  Mass of Ions in am
   POMASS = 192.22195.08196.97
  Ionic Valenz
   ZVAL   =   9.00 10.00 11.00
  Atomic Wigner-Seitz radii
   RWIGS  =  -1.00 -1.00 -1.00
  virtual crystal weights 
   VCA    =   1.00  1.00  1.00
   NELECT =     160.0000    total number of electrons
   NUPDOWN=      -1.0000    fix difference up-down

 DOS related values:
   EMIN   =  10.00;   EMAX   =-10.00  energy-range for DOS
   EFERMI =   0.00
   ISMEAR =     1;   SIGMA  =   0.20  broadening in eV -4-tet -1-fermi 0-gaus

 Electronic relaxation 2 (details)
   IALGO  =     38    algorithm
   LDIAG  =      T    sub-space diagonalisation (order eigenvalues)
   LSUBROT=      F    optimize rotation matrix (better conditioning)
   TURBO    =      0    0=normal 1=particle mesh
   IRESTART =      0    0=no restart 2=restart with 2 vectors
   NREBOOT  =      0    no. of reboots
   NMIN     =      0    reboot dimension
   EREF     =   0.00    reference energy to select bands
   IMIX   =      4    mixing-type and parameters
     AMIX     =   0.40;   BMIX     =  1.00
     AMIX_MAG =   1.60;   BMIX_MAG =  1.00
     AMIN     =   0.10
     WC   =   100.;   INIMIX=   1;  MIXPRE=   1;  MAXMIX= -45

 Intra band minimization:
   WEIMIN = 0.0000     energy-eigenvalue tresh-hold
   EBREAK =  0.26E-07  absolut break condition
   DEPER  =   0.30     relativ break condition  

   TIME   =   0.40     timestep for ELM

  volume/ion in A,a.u.               =      51.51       347.59
  Fermi-wavevector in a.u.,A,eV,Ry     =   0.947945  1.791357 12.226201  0.898600
  Thomas-Fermi vector in A             =   2.076087
 
 Write flags
   LWAVE        =      F    write WAVECAR
   LDOWNSAMPLE  =      F    k-point downsampling of WAVECAR
   LCHARG       =      F    write CHGCAR
   LVTOT        =      F    write LOCPOT, total local potential
   LVHAR        =      F    write LOCPOT, Hartree potential only
   LELF         =      F    write electronic localiz. function (ELF)
   LORBIT       =      0    0 simple, 1 ext, 2 COOP (PROOUT), +10 PAW based schemes


 Dipole corrections
   LMONO  =      F    monopole corrections only (constant potential shift)
   LDIPOL =      F    correct potential (dipole corrections)
   IDIPOL =      3    1-x, 2-y, 3-z, 4-all directions 
   EPSILON=  1.0000000 bulk dielectric constant

 Exchange correlation treatment:
   GGA     =    PE    GGA type
   LEXCH   =     8    internal setting for exchange type
   VOSKOWN=      0    Vosko Wilk Nusair interpolation
   LHFCALC =     F    Hartree Fock is set to
   LHFONE  =     F    Hartree Fock one center treatment
   AEXX    =    0.0000 exact exchange contribution

 Linear response parameters
   LEPSILON=     F    determine dielectric tensor
   LRPA    =     F    only Hartree local field effects (RPA)
   LNABLA  =     F    use nabla operator in PAW spheres
   LVEL    =     F    velocity operator in full k-point grid
   LINTERFAST=   F  fast interpolation
   KINTER  =     0    interpolate to denser k-point grid
   CSHIFT  =0.1000    complex shift for real part using Kramers Kronig
   OMEGAMAX=  -1.0    maximum frequency
   DEG_THRESHOLD= 0.2000000E-02 threshold for treating states as degnerate
   RTIME   =   -0.100 relaxation time in fs
  (WPLASMAI=    0.000 imaginary part of plasma frequency in eV, 0.658/RTIME)
   DFIELD  = 0.0000000 0.0000000 0.0000000 field for delta impulse in time
 
 Orbital magnetization related:
   ORBITALMAG=     F  switch on orbital magnetization
   LCHIMAG   =     F  perturbation theory with respect to B field
   DQ        =  0.001000  dq finite difference perturbation B field
   LLRAUG    =     F  two centre corrections for induced B field



--------------------------------------------------------------------------------------------------------


 Static calculation
 charge density and potential will be updated during run
 non-spin polarized calculation
 Variant of blocked Davidson
 Davidson routine will perform the subspace rotation
 perform sub-space diagonalisation
    after iterative eigenvector-optimisation
 modified Broyden-mixing scheme, WC =      100.0
 initial mixing is a Kerker type mixing with AMIX =  0.4000 and BMIX =      1.0000
 Hartree-type preconditioning will be used
 using additional bands           16
 reciprocal scheme for non local part
 use partial core corrections
 calculate Harris-corrections to forces 
   (improved forces if not selfconsistent)
 use gradient corrections 
 use of overlap-Matrix (Vanderbilt PP)
 Methfessel and Paxton  Order N= 1 SIGMA  =   0.20


--------------------------------------------------------------------------------------------------------


  energy-cutoff  :      350.00
  volume of cell :      824.13
      direct lattice vectors                 reciprocal lattice vectors
     5.557859300  0.000000000  0.000000000     0.179925390 -0.103879972  0.000000000
     2.778929650  4.813247345  0.000000000     0.000000000  0.207759944  0.000000000
     0.000000000  0.000000000 30.806959674     0.000000000  0.000000000  0.032460198

  length of vectors
     5.557859300  5.557859300 30.806959674     0.207759944  0.207759944  0.032460198


 
 k-points in units of 2pi/SCALE and weight: KPOINTS created by Atomic Simulation Env
   0.01124534  0.00649250  0.00000000       0.010
   0.00000000  0.01298500  0.00000000       0.021
   0.03373601 -0.00649250  0.00000000       0.021
   0.02249067  0.02596999  0.00000000       0.021
  -0.01124534  0.03246249  0.00000000       0.021
   0.05622668 -0.01947749  0.00000000       0.021
   0.04498135  0.03895499  0.00000000       0.021
  -0.01124534  0.05843248  0.00000000       0.021
   0.07871736 -0.03246249  0.00000000       0.021
   0.06747202  0.05193999  0.00000000       0.021
  -0.01124534  0.08440248  0.00000000       0.021
  -0.07871736  0.05843248  0.00000000       0.021
   0.08996269 -0.14283496  0.00000000       0.021
  -0.01124534  0.11037247  0.00000000       0.021
  -0.05622668  0.04544749  0.00000000       0.021
  -0.06747202 -0.02596999  0.00000000       0.021
  -0.01124534 -0.07141748  0.00000000       0.021
  -0.03373601  0.03246249  0.00000000       0.021
  -0.04498135 -0.01298500  0.00000000       0.021
  -0.01124534 -0.04544749  0.00000000       0.021
  -0.01124534  0.01947749  0.00000000       0.010
  -0.02249067  0.00000000  0.00000000       0.021
   0.03373601  0.01947749  0.00000000       0.010
   0.00000000  0.03895499  0.00000000       0.021
   0.05622668  0.00649250  0.00000000       0.021
   0.02249067  0.05193999  0.00000000       0.021
  -0.03373601  0.04544749  0.00000000       0.021
   0.07871736 -0.00649250  0.00000000       0.021
   0.04498135  0.06492498  0.00000000       0.021
  -0.03373601  0.07141748  0.00000000       0.021
  -0.07871736  0.08440248  0.00000000       0.021
   0.06747202 -0.12984997  0.00000000       0.021
  -0.03373601  0.09738747  0.00000000       0.021
  -0.05622668  0.07141748  0.00000000       0.021
   0.08996269 -0.11686497  0.00000000       0.021
  -0.03373601  0.12335747  0.00000000       0.021
  -0.03373601  0.05843248  0.00000000       0.010
  -0.06747202  0.00000000  0.00000000       0.021
   0.05622668  0.03246249  0.00000000       0.010
   0.00000000  0.06492498  0.00000000       0.021
   0.07871736  0.01947749  0.00000000       0.021
   0.02249067  0.07790998  0.00000000       0.021
  -0.05622668  0.05843248  0.00000000       0.021
  -0.07871736  0.11037247  0.00000000       0.021
   0.04498135 -0.11686497  0.00000000       0.021
  -0.05622668  0.08440248  0.00000000       0.021
  -0.05622668  0.09738747  0.00000000       0.010
   0.06747202 -0.10387997  0.00000000       0.021
   0.07871736  0.04544749  0.00000000       0.010
   0.00000000  0.09089498  0.00000000       0.021
  -0.07871736  0.13634246  0.00000000       0.010
   0.02249067 -0.10387997  0.00000000       0.021
 
 k-points in reciprocal lattice and weights: KPOINTS created by Atomic Simulation Env
   0.06250000  0.06250000  0.00000000       0.010
   0.00000000  0.06250000  0.00000000       0.021
   0.18750000  0.06250000  0.00000000       0.021
   0.12500000  0.18750000  0.00000000       0.021
  -0.06250000  0.12500000  0.00000000       0.021
   0.31250000  0.06250000  0.00000000       0.021
   0.25000000  0.31250000  0.00000000       0.021
  -0.06250000  0.25000000  0.00000000       0.021
   0.43750000  0.06250000  0.00000000       0.021
   0.37500000  0.43750000  0.00000000       0.021
  -0.06250000  0.37500000  0.00000000       0.021
  -0.43750000  0.06250000  0.00000000       0.021
   0.50000000 -0.43750000  0.00000000       0.021
  -0.06250000  0.50000000  0.00000000       0.021
  -0.31250000  0.06250000  0.00000000       0.021
  -0.37500000 -0.31250000  0.00000000       0.021
  -0.06250000 -0.37500000  0.00000000       0.021
  -0.18750000  0.06250000  0.00000000       0.021
  -0.25000000 -0.18750000  0.00000000       0.021
  -0.06250000 -0.25000000  0.00000000       0.021
  -0.06250000  0.06250000  0.00000000       0.010
  -0.12500000 -0.06250000  0.00000000       0.021
   0.18750000  0.18750000  0.00000000       0.010
   0.00000000  0.18750000  0.00000000       0.021
   0.31250000  0.18750000  0.00000000       0.021
   0.12500000  0.31250000  0.00000000       0.021
  -0.18750000  0.12500000  0.00000000       0.021
   0.43750000  0.18750000  0.00000000       0.021
   0.25000000  0.43750000  0.00000000       0.021
  -0.18750000  0.25000000  0.00000000       0.021
  -0.43750000  0.18750000  0.00000000       0.021
   0.37500000 -0.43750000  0.00000000       0.021
  -0.18750000  0.37500000  0.00000000       0.021
  -0.31250000  0.18750000  0.00000000       0.021
   0.50000000 -0.31250000  0.00000000       0.021
  -0.18750000  0.50000000  0.00000000       0.021
  -0.18750000  0.18750000  0.00000000       0.010
  -0.37500000 -0.18750000  0.00000000       0.021
   0.31250000  0.31250000  0.00000000       0.010
   0.00000000  0.31250000  0.00000000       0.021
   0.43750000  0.31250000  0.00000000       0.021
   0.12500000  0.43750000  0.00000000       0.021
  -0.31250000  0.12500000  0.00000000       0.021
  -0.43750000  0.31250000  0.00000000       0.021
   0.25000000 -0.43750000  0.00000000       0.021
  -0.31250000  0.25000000  0.00000000       0.021
  -0.31250000  0.31250000  0.00000000       0.010
   0.37500000 -0.31250000  0.00000000       0.021
   0.43750000  0.43750000  0.00000000       0.010
   0.00000000  0.43750000  0.00000000       0.021
  -0.43750000  0.43750000  0.00000000       0.010
   0.12500000 -0.43750000  0.00000000       0.021
 
 position of ions in fractional coordinates (direct lattice) 
   0.00000000  0.00000000  0.38952237
   0.50000000  0.00000000  0.38952237
   0.00000000  0.50000000  0.38952237
   0.50000000  0.50000000  0.38952237
   0.16666667  0.16666667  0.46468540
   0.66666667  0.16666667  0.46468540
   0.16666667  0.66666667  0.46468540
   0.66666667  0.66666667  0.46468540
   0.83333333  0.33333333  0.53920296
   0.33333333  0.33333333  0.53920296
   0.83333333  0.83333333  0.53920296
   0.33333333  0.83333333  0.53920296
   0.00000000  0.00000000  0.61486043
   0.50000000  0.00000000  0.61486043
   0.00000000  0.50000000  0.61486043
   0.50000000  0.50000000  0.61486043
 
 position of ions in cartesian coordinates  (Angst):
   0.00000000  0.00000000 12.00000000
   2.77892965  0.00000000 12.00000000
   1.38946483  2.40662367 12.00000000
   4.16839448  2.40662367 12.00000000
   1.38946483  0.80220789 14.31554441
   4.16839448  0.80220789 14.31554441
   2.77892965  3.20883156 14.31554441
   5.55785930  3.20883156 14.31554441
   5.55785930  1.60441578 16.61120399
   2.77892965  1.60441578 16.61120399
   6.94732413  4.01103945 16.61120399
   4.16839448  4.01103945 16.61120399
   0.00000000  0.00000000 18.94198048
   2.77892965  0.00000000 18.94198048
   1.38946483  2.40662367 18.94198048
   4.16839448  2.40662367 18.94198048
 


--------------------------------------------------------------------------------------------------------


 k-point  1 :   0.0625 0.0625 0.0000  plane waves:   12325
 k-point  2 :   0.0000 0.0625 0.0000  plane waves:   12325
 k-point  3 :   0.1875 0.0625 0.0000  plane waves:   12294
 k-point  4 :   0.1250 0.1875 0.0000  plane waves:   12294
 k-point  5 :  -0.0625 0.1250 0.0000  plane waves:   12294
 k-point  6 :   0.3125 0.0625 0.0000  plane waves:   12263
 k-point  7 :   0.2500 0.3125 0.0000  plane waves:   12263
 k-point  8 :  -0.0625 0.2500 0.0000  plane waves:   12263
 k-point  9 :   0.4375 0.0625 0.0000  plane waves:   12221
 k-point 10 :   0.3750 0.4375 0.0000  plane waves:   12221
 k-point 11 :  -0.0625 0.3750 0.0000  plane waves:   12221
 k-point 12 :  -0.4375 0.0625 0.0000  plane waves:   12211
 k-point 13 :   0.5000-0.4375 0.0000  plane waves:   12211
 k-point 14 :  -0.0625 0.5000 0.0000  plane waves:   12211
 k-point 15 :  -0.3125 0.0625 0.0000  plane waves:   12242
 k-point 16 :  -0.3750-0.3125 0.0000  plane waves:   12242
 k-point 17 :  -0.0625-0.3750 0.0000  plane waves:   12242
 k-point 18 :  -0.1875 0.0625 0.0000  plane waves:   12280
 k-point 19 :  -0.2500-0.1875 0.0000  plane waves:   12280
 k-point 20 :  -0.0625-0.2500 0.0000  plane waves:   12280
 k-point 21 :  -0.0625 0.0625 0.0000  plane waves:   12329
 k-point 22 :  -0.1250-0.0625 0.0000  plane waves:   12329
 k-point 23 :   0.1875 0.1875 0.0000  plane waves:   12277
 k-point 24 :   0.0000 0.1875 0.0000  plane waves:   12277
 k-point 25 :   0.3125 0.1875 0.0000  plane waves:   12288
 k-point 26 :   0.1250 0.3125 0.0000  plane waves:   12288
 k-point 27 :  -0.1875 0.1250 0.0000  plane waves:   12288
 k-point 28 :   0.4375 0.1875 0.0000  plane waves:   12234
 k-point 29 :   0.2500 0.4375 0.0000  plane waves:   12234
 k-point 30 :  -0.1875 0.2500 0.0000  plane waves:   12234
 k-point 31 :  -0.4375 0.1875 0.0000  plane waves:   12216
 k-point 32 :   0.3750-0.4375 0.0000  plane waves:   12216
 k-point 33 :  -0.1875 0.3750 0.0000  plane waves:   12216
 k-point 34 :  -0.3125 0.1875 0.0000  plane waves:   12215
 k-point 35 :   0.5000-0.3125 0.0000  plane waves:   12215
 k-point 36 :  -0.1875 0.5000 0.0000  plane waves:   12215
 k-point 37 :  -0.1875 0.1875 0.0000  plane waves:   12289
 k-point 38 :  -0.3750-0.1875 0.0000  plane waves:   12289
 k-point 39 :   0.3125 0.3125 0.0000  plane waves:   12275
 k-point 40 :   0.0000 0.3125 0.0000  plane waves:   12275
 k-point 41 :   0.4375 0.3125 0.0000  plane waves:   12239
 k-point 42 :   0.1250 0.4375 0.0000  plane waves:   12239
 k-point 43 :  -0.3125 0.1250 0.0000  plane waves:   12239
 k-point 44 :  -0.4375 0.3125 0.0000  plane waves:   12235
 k-point 45 :   0.2500-0.4375 0.0000  plane waves:   12235
 k-point 46 :  -0.3125 0.2500 0.0000  plane waves:   12235
 k-point 47 :  -0.3125 0.3125 0.0000  plane waves:   12232
 k-point 48 :   0.3750-0.3125 0.0000  plane waves:   12232
 k-point 49 :   0.4375 0.4375 0.0000  plane waves:   12200
 k-point 50 :   0.0000 0.4375 0.0000  plane waves:   12200
 k-point 51 :  -0.4375 0.4375 0.0000  plane waves:   12214
 k-point 52 :   0.1250-0.4375 0.0000  plane waves:   12214

 maximum and minimum number of plane-waves per node :     12329    12200

 maximum number of plane-waves:     12329
 maximum index in each direction: 
   IXMAX=    8   IYMAX=    8   IZMAX=   46
   IXMIN=   -8   IYMIN=   -8   IZMIN=  -46


 serial   3D FFT for wavefunctions
 parallel 3D FFT for charge:
    minimum data exchange during FFTs selected (reduces bandwidth)


 total amount of memory used by VASP MPI-rank0   362189. kBytes
=======================================================================

   base      :      30000. kBytes
   nonl-proj :     280273. kBytes
   fftplans  :       2015. kBytes
   grid      :       7641. kBytes
   one-center:        248. kBytes
   wavefun   :      42012. kBytes
 
     INWAV:  cpu time    0.0000: real time    0.0000
 Broyden mixing: mesh for mixing (old mesh)
   NGX = 17   NGY = 17   NGZ = 93
  (NGX  = 56   NGY  = 56   NGZ  =288)
  gives a total of  26877 points

 initial charge density was supplied:
 charge density of overlapping atoms calculated
 number of electron     160.0000000 magnetization 
 keeping initial charge density in first step


--------------------------------------------------------------------------------------------------------


 Maximum index for augmentation-charges          824 (set IRDMAX)


--------------------------------------------------------------------------------------------------------


 First call to EWALD:  gamma=   0.189
 Maximum number of real-space cells 5x 5x 1
 Maximum number of reciprocal cells 2x 2x 8

    FEWALD:  cpu time    0.0012: real time    0.0012


--------------------------------------- Iteration      1(   1)  ---------------------------------------


    POTLOK:  cpu time    0.0193: real time    0.0251
    SETDIJ:  cpu time    0.0022: real time    0.0023
     EDDAV:  cpu time    9.0497: real time    9.0515
       DOS:  cpu time    0.0015: real time    0.0015
    --------------------------------------------
      LOOP:  cpu time    9.0727: real time    9.0803

 eigenvalue-minimisations  :  9984
 total energy-change (2. order) : 0.9780028E+03  (-0.5548914E+04)
 number of electron     160.0000000 magnetization 
 augmentation part      160.0000000 magnetization 

 Free energy of the ion-electron system (eV)
  ---------------------------------------------------
  alpha Z        PSCENC =       303.52543553
  Ewald energy   TEWEN  =     98433.56053661
  -Hartree energ DENC   =   -110505.05101069
  -exchange      EXHF   =         0.00000000
  -V(xc)+E(xc)   XCENC  =        46.26589278
  PAW double counting   =     11171.21661038   -10711.84633960
  entropy T*S    EENTRO =        -0.00807726
  eigenvalues    EBANDS =       546.64552061
  atomic energy  EATOM  =     11693.69420960
  Solvation  Ediel_sol  =         0.00000000
  ---------------------------------------------------
  free energy    TOTEN  =       978.00277795 eV

  energy without entropy =      978.01085522  energy(sigma->0) =      978.00547037


--------------------------------------------------------------------------------------------------------




--------------------------------------- Iteration      1(   2)  ---------------------------------------


     EDDAV:  cpu time   12.7751: real time   12.7798
       DOS:  cpu time    0.0031: real time    0.0031
    --------------------------------------------
      LOOP:  cpu time   12.7782: real time   12.7828

 eigenvalue-minimisations  : 14496
 total energy-change (2. order) :-0.1016410E+04  (-0.9842847E+03)
 number of electron     160.0000000 magnetization 
 augmentation part      160.0000000 magnetization 

 Free energy of the ion-electron system (eV)
  ---------------------------------------------------
  alpha Z        PSCENC =       303.52543553
  Ewald energy   TEWEN  =     98433.56053661
  -Hartree energ DENC   =   -110505.05101069
  -exchange      EXHF   =         0.00000000
  -V(xc)+E(xc)   XCENC  =        46.26589278
  PAW double counting   =     11171.21661038   -10711.84633960
  entropy T*S    EENTRO =         0.00280827
  eigenvalues    EBANDS =      -469.77488692
  atomic energy  EATOM  =     11693.69420960
  Solvation  Ediel_sol  =         0.00000000
  ---------------------------------------------------
  free energy    TOTEN  =       -38.40674404 eV

  energy without entropy =      -38.40955231  energy(sigma->0) =      -38.40768013


--------------------------------------------------------------------------------------------------------




--------------------------------------- Iteration      1(   3)  ---------------------------------------


     EDDAV:  cpu time   11.1106: real time   11.1126
       DOS:  cpu time    0.0018: real time    0.0018
    --------------------------------------------
      LOOP:  cpu time   11.1124: real time   11.1144

 eigenvalue-minimisations  : 12432
 total energy-change (2. order) :-0.5857648E+02  (-0.5663942E+02)
 number of electron     160.0000000 magnetization 
 augmentation part      160.0000000 magnetization 

 Free energy of the ion-electron system (eV)
  ---------------------------------------------------
  alpha Z        PSCENC =       303.52543553
  Ewald energy   TEWEN  =     98433.56053661
  -Hartree energ DENC   =   -110505.05101069
  -exchange      EXHF   =         0.00000000
  -V(xc)+E(xc)   XCENC  =        46.26589278
  PAW double counting   =     11171.21661038   -10711.84633960
  entropy T*S    EENTRO =        -0.02539515
  eigenvalues    EBANDS =      -528.32316270
  atomic energy  EATOM  =     11693.69420960
  Solvation  Ediel_sol  =         0.00000000
  ---------------------------------------------------
  free energy    TOTEN  =       -96.98322325 eV

  energy without entropy =      -96.95782809  energy(sigma->0) =      -96.97475820


--------------------------------------------------------------------------------------------------------




--------------------------------------- Iteration      1(   4)  ---------------------------------------


     EDDAV:  cpu time   12.2640: real time   12.2682
       DOS:  cpu time    0.0018: real time    0.0018
    --------------------------------------------
      LOOP:  cpu time   12.2658: real time   12.2700

 eigenvalue-minimisations  : 13968
 total energy-change (2. order) :-0.1270011E+01  (-0.1261994E+01)
 number of electron     160.0000000 magnetization 
 augmentation part      160.0000000 magnetization 

 Free energy of the ion-electron system (eV)
  ---------------------------------------------------
  alpha Z        PSCENC =       303.52543553
  Ewald energy   TEWEN  =     98433.56053661
  -Hartree energ DENC   =   -110505.05101069
  -exchange      EXHF   =         0.00000000
  -V(xc)+E(xc)   XCENC  =        46.26589278
  PAW double counting   =     11171.21661038   -10711.84633960
  entropy T*S    EENTRO =        -0.02598754
  eigenvalues    EBANDS =      -529.59258176
  atomic energy  EATOM  =     11693.69420960
  Solvation  Ediel_sol  =         0.00000000
  ---------------------------------------------------
  free energy    TOTEN  =       -98.25323469 eV

  energy without entropy =      -98.22724715  energy(sigma->0) =      -98.24457217


--------------------------------------------------------------------------------------------------------




--------------------------------------- Iteration      1(   5)  ---------------------------------------


     EDDAV:  cpu time   13.2377: real time   13.2394
       DOS:  cpu time    0.0018: real time    0.0018
    CHARGE:  cpu time    0.3185: real time    0.3185
    MIXING:  cpu time    0.0010: real time    0.0011
    --------------------------------------------
      LOOP:  cpu time   13.5591: real time   13.5609

 eigenvalue-minimisations  : 15168
 total energy-change (2. order) :-0.3634715E-01  (-0.3633422E-01)
 number of electron     160.0000093 magnetization 
 augmentation part       46.9812414 magnetization 

 Broyden mixing:
  rms(total) = 0.41705E+01    rms(broyden)= 0.41704E+01
  rms(prec ) = 0.41996E+01
  weight for this iteration     100.00

 Free energy of the ion-electron system (eV)
  ---------------------------------------------------
  alpha Z        PSCENC =       303.52543553
  Ewald energy   TEWEN  =     98433.56053661
  -Hartree energ DENC   =   -110505.05101069
  -exchange      EXHF   =         0.00000000
  -V(xc)+E(xc)   XCENC  =        46.26589278
  PAW double counting   =     11171.21661038   -10711.84633960
  entropy T*S    EENTRO =        -0.02599355
  eigenvalues    EBANDS =      -529.62892289
  atomic energy  EATOM  =     11693.69420960
  Solvation  Ediel_sol  =         0.00000000
  ---------------------------------------------------
  free energy    TOTEN  =       -98.28958184 eV

  energy without entropy =      -98.26358829  energy(sigma->0) =      -98.28091732


--------------------------------------------------------------------------------------------------------




--------------------------------------- Iteration      1(   6)  ---------------------------------------


    POTLOK:  cpu time    0.0177: real time    0.0202
    SETDIJ:  cpu time    0.0021: real time    0.0021
     EDDAV:  cpu time   10.4750: real time   10.4763
       DOS:  cpu time    0.0018: real time    0.0018
    CHARGE:  cpu time    0.3188: real time    0.3188
    MIXING:  cpu time    0.0008: real time    0.0009
    --------------------------------------------
      LOOP:  cpu time   10.8161: real time   10.8202

 eigenvalue-minimisations  : 11880
 total energy-change (2. order) : 0.4000236E+01  (-0.2892308E+01)
 number of electron     160.0000089 magnetization 
 augmentation part       49.5405912 magnetization 

 Broyden mixing:
  rms(total) = 0.30117E+01    rms(broyden)= 0.30116E+01
  rms(prec ) = 0.30967E+01
  weight for this iteration     100.00

 eigenvalues of (default mixing * dielectric matrix)
  average eigenvalue GAMMA=   1.3285
  1.3285

 Free energy of the ion-electron system (eV)
  ---------------------------------------------------
  alpha Z        PSCENC =       303.52543553
  Ewald energy   TEWEN  =     98433.56053661
  -Hartree energ DENC   =   -110316.33864462
  -exchange      EXHF   =         0.00000000
  -V(xc)+E(xc)   XCENC  =        42.09445909
  PAW double counting   =     12324.47231009   -11888.35591891
  entropy T*S    EENTRO =        -0.02894407
  eigenvalues    EBANDS =      -686.91278894
  atomic energy  EATOM  =     11693.69420960
  Solvation  Ediel_sol  =         0.00000000
  ---------------------------------------------------
  free energy    TOTEN  =       -94.28934562 eV

  energy without entropy =      -94.26040155  energy(sigma->0) =      -94.27969760


--------------------------------------------------------------------------------------------------------




--------------------------------------- Iteration      1(   7)  ---------------------------------------


    POTLOK:  cpu time    0.0168: real time    0.0218
    SETDIJ:  cpu time    0.0023: real time    0.0023
     EDDAV:  cpu time   11.0272: real time   11.0286
       DOS:  cpu time    0.0017: real time    0.0017
    CHARGE:  cpu time    0.3177: real time    0.3177
    MIXING:  cpu time    0.0006: real time    0.0006
    --------------------------------------------
      LOOP:  cpu time   11.3663: real time   11.3727

 eigenvalue-minimisations  : 12504
 total energy-change (2. order) :-0.2444163E+02  (-0.1720657E+02)
 number of electron     160.0000107 magnetization 
 augmentation part       48.7943127 magnetization 

 Broyden mixing:
  rms(total) = 0.44809E+01    rms(broyden)= 0.44808E+01
  rms(prec ) = 0.49595E+01
  weight for this iteration     100.00

 eigenvalues of (default mixing * dielectric matrix)
  average eigenvalue GAMMA=   1.1847
  2.1109  0.2584

 Free energy of the ion-electron system (eV)
  ---------------------------------------------------
  alpha Z        PSCENC =       303.52543553
  Ewald energy   TEWEN  =     98433.56053661
  -Hartree energ DENC   =   -110487.45881484
  -exchange      EXHF   =         0.00000000
  -V(xc)+E(xc)   XCENC  =        40.90861198
  PAW double counting   =     13226.01273393   -12800.55508198
  entropy T*S    EENTRO =         0.00410899
  eigenvalues    EBANDS =      -528.42271813
  atomic energy  EATOM  =     11693.69420960
  Solvation  Ediel_sol  =         0.00000000
  ---------------------------------------------------
  free energy    TOTEN  =      -118.73097830 eV

  energy without entropy =     -118.73508730  energy(sigma->0) =     -118.73234797


--------------------------------------------------------------------------------------------------------




--------------------------------------- Iteration      1(   8)  ---------------------------------------


    POTLOK:  cpu time    0.0161: real time    0.0163
    SETDIJ:  cpu time    0.0023: real time    0.0023
     EDDAV:  cpu time   12.8357: real time   12.8376
       DOS:  cpu time    0.0018: real time    0.0018
    CHARGE:  cpu time    0.3171: real time    0.3172
    MIXING:  cpu time    0.0007: real time    0.0007
    --------------------------------------------
      LOOP:  cpu time   13.1737: real time   13.1758

 eigenvalue-minimisations  : 14808
 total energy-change (2. order) : 0.2362073E+02  (-0.6729753E+01)
 number of electron     160.0000106 magnetization 
 augmentation part       50.4181201 magnetization 

 Broyden mixing:
  rms(total) = 0.15456E+01    rms(broyden)= 0.15455E+01
  rms(prec ) = 0.16903E+01
  weight for this iteration     100.00

 eigenvalues of (default mixing * dielectric matrix)
  average eigenvalue GAMMA=   1.0029
  2.0946  0.6016  0.3125

 Free energy of the ion-electron system (eV)
  ---------------------------------------------------
  alpha Z        PSCENC =       303.52543553
  Ewald energy   TEWEN  =     98433.56053661
  -Hartree energ DENC   =   -110322.51992588
  -exchange      EXHF   =         0.00000000
  -V(xc)+E(xc)   XCENC  =        39.90695699
  PAW double counting   =     14057.42675868   -13643.11785150
  entropy T*S    EENTRO =        -0.04000341
  eigenvalues    EBANDS =      -657.54636781
  atomic energy  EATOM  =     11693.69420960
  Solvation  Ediel_sol  =         0.00000000
  ---------------------------------------------------
  free energy    TOTEN  =       -95.11025119 eV

  energy without entropy =      -95.07024778  energy(sigma->0) =      -95.09691672


--------------------------------------------------------------------------------------------------------




--------------------------------------- Iteration      1(   9)  ---------------------------------------


    POTLOK:  cpu time    0.0169: real time    0.0181
    SETDIJ:  cpu time    0.0021: real time    0.0021
     EDDAV:  cpu time   10.4340: real time   10.4353
       DOS:  cpu time    0.0018: real time    0.0018
    CHARGE:  cpu time    0.3188: real time    0.3189
    MIXING:  cpu time    0.0007: real time    0.0007
    --------------------------------------------
      LOOP:  cpu time   10.7742: real time   10.7768

 eigenvalue-minimisations  : 11760
 total energy-change (2. order) : 0.8128393E+00  (-0.3582794E+01)
 number of electron     160.0000088 magnetization 
 augmentation part       50.3631303 magnetization 

 Broyden mixing:
  rms(total) = 0.16087E+01    rms(broyden)= 0.16084E+01
  rms(prec ) = 0.17147E+01
  weight for this iteration     100.00

 eigenvalues of (default mixing * dielectric matrix)
  average eigenvalue GAMMA=   0.8975
  2.1095  0.9179  0.2814  0.2814

 Free energy of the ion-electron system (eV)
  ---------------------------------------------------
  alpha Z        PSCENC =       303.52543553
  Ewald energy   TEWEN  =     98433.56053661
  -Hartree energ DENC   =   -110318.45619848
  -exchange      EXHF   =         0.00000000
  -V(xc)+E(xc)   XCENC  =        40.33786175
  PAW double counting   =     14190.45921415   -13775.39350553
  entropy T*S    EENTRO =        -0.02822282
  eigenvalues    EBANDS =      -661.99674274
  atomic energy  EATOM  =     11693.69420960
  Solvation  Ediel_sol  =         0.00000000
  ---------------------------------------------------
  free energy    TOTEN  =       -94.29741192 eV

  energy without entropy =      -94.26918910  energy(sigma->0) =      -94.28800432


--------------------------------------------------------------------------------------------------------




--------------------------------------- Iteration      1(  10)  ---------------------------------------


    POTLOK:  cpu time    0.0178: real time    0.0180
    SETDIJ:  cpu time    0.0023: real time    0.0023
     EDDAV:  cpu time   13.3884: real time   13.3902
       DOS:  cpu time    0.0017: real time    0.0017
    CHARGE:  cpu time    0.3185: real time    0.3185
    MIXING:  cpu time    0.0007: real time    0.0007
    --------------------------------------------
      LOOP:  cpu time   13.7294: real time   13.7313

 eigenvalue-minimisations  : 15504
 total energy-change (2. order) : 0.9674850E+00  (-0.1543679E+01)
 number of electron     160.0000094 magnetization 
 augmentation part       50.2130797 magnetization 

 Broyden mixing:
  rms(total) = 0.12447E+01    rms(broyden)= 0.12447E+01
  rms(prec ) = 0.15998E+01
  weight for this iteration     100.00

 eigenvalues of (default mixing * dielectric matrix)
  average eigenvalue GAMMA=   0.7361
  2.1254  0.9160  0.2772  0.2772  0.0845

 Free energy of the ion-electron system (eV)
  ---------------------------------------------------
  alpha Z        PSCENC =       303.52543553
  Ewald energy   TEWEN  =     98433.56053661
  -Hartree energ DENC   =   -110314.79651643
  -exchange      EXHF   =         0.00000000
  -V(xc)+E(xc)   XCENC  =        40.47268655
  PAW double counting   =     14277.25767759   -13861.96641837
  entropy T*S    EENTRO =        -0.00390017
  eigenvalues    EBANDS =      -665.07363782
  atomic energy  EATOM  =     11693.69420960
  Solvation  Ediel_sol  =         0.00000000
  ---------------------------------------------------
  free energy    TOTEN  =       -93.32992691 eV

  energy without entropy =      -93.32602674  energy(sigma->0) =      -93.32862685


--------------------------------------------------------------------------------------------------------




--------------------------------------- Iteration      1(  11)  ---------------------------------------


    POTLOK:  cpu time    0.0162: real time    0.0164
    SETDIJ:  cpu time    0.0021: real time    0.0021
     EDDAV:  cpu time   12.1453: real time   12.1468
       DOS:  cpu time    0.0018: real time    0.0018
    CHARGE:  cpu time    0.3166: real time    0.3167
    MIXING:  cpu time    0.0007: real time    0.0007
    --------------------------------------------
      LOOP:  cpu time   12.4828: real time   12.4845

 eigenvalue-minimisations  : 13968
 total energy-change (2. order) : 0.1103541E+01  (-0.7522486E+00)
 number of electron     160.0000093 magnetization 
 augmentation part       50.1621409 magnetization 

 Broyden mixing:
  rms(total) = 0.53779E+00    rms(broyden)= 0.53771E+00
  rms(prec ) = 0.58755E+00
  weight for this iteration     100.00

 eigenvalues of (default mixing * dielectric matrix)
  average eigenvalue GAMMA=   0.7334
  2.1549  0.9847  0.4744  0.4289  0.2749  0.0823

 Free energy of the ion-electron system (eV)
  ---------------------------------------------------
  alpha Z        PSCENC =       303.52543553
  Ewald energy   TEWEN  =     98433.56053661
  -Hartree energ DENC   =   -110318.92412901
  -exchange      EXHF   =         0.00000000
  -V(xc)+E(xc)   XCENC  =        40.48436273
  PAW double counting   =     14289.92218370   -13874.69072906
  entropy T*S    EENTRO =        -0.03498675
  eigenvalues    EBANDS =      -659.76326972
  atomic energy  EATOM  =     11693.69420960
  Solvation  Ediel_sol  =         0.00000000
  ---------------------------------------------------
  free energy    TOTEN  =       -92.22638637 eV

  energy without entropy =      -92.19139962  energy(sigma->0) =      -92.21472412


--------------------------------------------------------------------------------------------------------




--------------------------------------- Iteration      1(  12)  ---------------------------------------


    POTLOK:  cpu time    0.0168: real time    0.0255
    SETDIJ:  cpu time    0.0021: real time    0.0021
     EDDAV:  cpu time   10.5224: real time   10.5239
       DOS:  cpu time    0.0018: real time    0.0018
    CHARGE:  cpu time    0.3172: real time    0.3173
    MIXING:  cpu time    0.0008: real time    0.0008
    --------------------------------------------
      LOOP:  cpu time   10.8611: real time   10.8713

 eigenvalue-minimisations  : 11856
 total energy-change (2. order) : 0.4197971E-01  (-0.2630959E+00)
 number of electron     160.0000096 magnetization 
 augmentation part       50.1363018 magnetization 

 Broyden mixing:
  rms(total) = 0.40802E+00    rms(broyden)= 0.40798E+00
  rms(prec ) = 0.51468E+00
  weight for this iteration     100.00

 eigenvalues of (default mixing * dielectric matrix)
  average eigenvalue GAMMA=   0.6928
  2.1087  1.0468  0.5139  0.5139  0.2941  0.2941  0.0780

 Free energy of the ion-electron system (eV)
  ---------------------------------------------------
  alpha Z        PSCENC =       303.52543553
  Ewald energy   TEWEN  =     98433.56053661
  -Hartree energ DENC   =   -110321.96431056
  -exchange      EXHF   =         0.00000000
  -V(xc)+E(xc)   XCENC  =        40.49707954
  PAW double counting   =     14304.78545289   -13889.90797377
  entropy T*S    EENTRO =        -0.05283482
  eigenvalues    EBANDS =      -656.32200168
  atomic energy  EATOM  =     11693.69420960
  Solvation  Ediel_sol  =         0.00000000
  ---------------------------------------------------
  free energy    TOTEN  =       -92.18440666 eV

  energy without entropy =      -92.13157184  energy(sigma->0) =      -92.16679505


--------------------------------------------------------------------------------------------------------




--------------------------------------- Iteration      1(  13)  ---------------------------------------


    POTLOK:  cpu time    0.0165: real time    0.0165
    SETDIJ:  cpu time    0.0021: real time    0.0021
     EDDAV:  cpu time   12.1073: real time   12.1087
       DOS:  cpu time    0.0018: real time    0.0018
    CHARGE:  cpu time    0.3179: real time    0.3179
    MIXING:  cpu time    0.0009: real time    0.0009
    --------------------------------------------
      LOOP:  cpu time   12.4465: real time   12.4479

 eigenvalue-minimisations  : 13848
 total energy-change (2. order) : 0.1207385E+00  (-0.1280892E+00)
 number of electron     160.0000096 magnetization 
 augmentation part       50.1237800 magnetization 

 Broyden mixing:
  rms(total) = 0.24678E+00    rms(broyden)= 0.24674E+00
  rms(prec ) = 0.25907E+00
  weight for this iteration     100.00

 eigenvalues of (default mixing * dielectric matrix)
  average eigenvalue GAMMA=   0.7311
  2.0733  1.1255  1.1255  0.5585  0.3381  0.3138  0.2365  0.0778

 Free energy of the ion-electron system (eV)
  ---------------------------------------------------
  alpha Z        PSCENC =       303.52543553
  Ewald energy   TEWEN  =     98433.56053661
  -Hartree energ DENC   =   -110322.91768651
  -exchange      EXHF   =         0.00000000
  -V(xc)+E(xc)   XCENC  =        40.50757124
  PAW double counting   =     14281.97917470   -13867.01642396
  entropy T*S    EENTRO =        -0.03501699
  eigenvalues    EBANDS =      -655.36146842
  atomic energy  EATOM  =     11693.69420960
  Solvation  Ediel_sol  =         0.00000000
  ---------------------------------------------------
  free energy    TOTEN  =       -92.06366819 eV

  energy without entropy =      -92.02865120  energy(sigma->0) =      -92.05199586


--------------------------------------------------------------------------------------------------------




--------------------------------------- Iteration      1(  14)  ---------------------------------------


    POTLOK:  cpu time    0.0174: real time    0.0183
    SETDIJ:  cpu time    0.0023: real time    0.0023
     EDDAV:  cpu time   13.8158: real time   13.8176
       DOS:  cpu time    0.0018: real time    0.0018
    CHARGE:  cpu time    0.3168: real time    0.3168
    MIXING:  cpu time    0.0009: real time    0.0009
    --------------------------------------------
      LOOP:  cpu time   14.1549: real time   14.1576

 eigenvalue-minimisations  : 16056
 total energy-change (2. order) :-0.1527896E-02  (-0.3903099E-01)
 number of electron     160.0000095 magnetization 
 augmentation part       50.1131138 magnetization 

 Broyden mixing:
  rms(total) = 0.21663E+00    rms(broyden)= 0.21662E+00
  rms(prec ) = 0.26620E+00
  weight for this iteration     100.00

 eigenvalues of (default mixing * dielectric matrix)
  average eigenvalue GAMMA=   0.7660
  1.9187  1.5350  1.5350  0.5623  0.3691  0.3691  0.2892  0.2377  0.0780

 Free energy of the ion-electron system (eV)
  ---------------------------------------------------
  alpha Z        PSCENC =       303.52543553
  Ewald energy   TEWEN  =     98433.56053661
  -Hartree energ DENC   =   -110325.75068647
  -exchange      EXHF   =         0.00000000
  -V(xc)+E(xc)   XCENC  =        40.53553150
  PAW double counting   =     14249.52262523   -13834.55126589
  entropy T*S    EENTRO =        -0.03787002
  eigenvalues    EBANDS =      -652.56371218
  atomic energy  EATOM  =     11693.69420960
  Solvation  Ediel_sol  =         0.00000000
  ---------------------------------------------------
  free energy    TOTEN  =       -92.06519609 eV

  energy without entropy =      -92.02732606  energy(sigma->0) =      -92.05257275


--------------------------------------------------------------------------------------------------------




--------------------------------------- Iteration      1(  15)  ---------------------------------------


    POTLOK:  cpu time    0.0165: real time    0.0165
    SETDIJ:  cpu time    0.0021: real time    0.0021
     EDDAV:  cpu time   11.1443: real time   11.1456
       DOS:  cpu time    0.0018: real time    0.0018
    CHARGE:  cpu time    0.3171: real time    0.3172
    MIXING:  cpu time    0.0009: real time    0.0009
    --------------------------------------------
      LOOP:  cpu time   11.4826: real time   11.4840

 eigenvalue-minimisations  : 12672
 total energy-change (2. order) :-0.6261929E-02  (-0.9129226E-02)
 number of electron     160.0000095 magnetization 
 augmentation part       50.0979125 magnetization 

 Broyden mixing:
  rms(total) = 0.21171E+00    rms(broyden)= 0.21171E+00
  rms(prec ) = 0.28669E+00
  weight for this iteration     100.00

 eigenvalues of (default mixing * dielectric matrix)
  average eigenvalue GAMMA=   0.8200
  2.2373  2.2373  1.2257  0.6669  0.4585  0.4585  0.3034  0.2972  0.2369  0.0779

 Free energy of the ion-electron system (eV)
  ---------------------------------------------------
  alpha Z        PSCENC =       303.52543553
  Ewald energy   TEWEN  =     98433.56053661
  -Hartree energ DENC   =   -110328.80379751
  -exchange      EXHF   =         0.00000000
  -V(xc)+E(xc)   XCENC  =        40.55475401
  PAW double counting   =     14219.84222290   -13804.87845141
  entropy T*S    EENTRO =        -0.03662903
  eigenvalues    EBANDS =      -649.52973872
  atomic energy  EATOM  =     11693.69420960
  Solvation  Ediel_sol  =         0.00000000
  ---------------------------------------------------
  free energy    TOTEN  =       -92.07145802 eV

  energy without entropy =      -92.03482899  energy(sigma->0) =      -92.05924834


--------------------------------------------------------------------------------------------------------




--------------------------------------- Iteration      1(  16)  ---------------------------------------


    POTLOK:  cpu time    0.0165: real time    0.0165
    SETDIJ:  cpu time    0.0021: real time    0.0021
     EDDAV:  cpu time   10.7091: real time   10.7105
       DOS:  cpu time    0.0018: real time    0.0018
    CHARGE:  cpu time    0.3167: real time    0.3168
    MIXING:  cpu time    0.0011: real time    0.0011
    --------------------------------------------
      LOOP:  cpu time   11.0474: real time   11.0487

 eigenvalue-minimisations  : 12144
 total energy-change (2. order) : 0.3116036E-01  (-0.1750599E-01)
 number of electron     160.0000095 magnetization 
 augmentation part       50.0866264 magnetization 

 Broyden mixing:
  rms(total) = 0.91499E-01    rms(broyden)= 0.91486E-01
  rms(prec ) = 0.10307E+00
  weight for this iteration     100.00

 eigenvalues of (default mixing * dielectric matrix)
  average eigenvalue GAMMA=   0.8376
  2.4174  2.4174  1.2310  0.6605  0.6605  0.5188  0.3942  0.3007  0.3007  0.2344
  0.0779

 Free energy of the ion-electron system (eV)
  ---------------------------------------------------
  alpha Z        PSCENC =       303.52543553
  Ewald energy   TEWEN  =     98433.56053661
  -Hartree energ DENC   =   -110331.88180490
  -exchange      EXHF   =         0.00000000
  -V(xc)+E(xc)   XCENC  =        40.58095905
  PAW double counting   =     14203.39617093   -13788.46432046
  entropy T*S    EENTRO =        -0.03750690
  eigenvalues    EBANDS =      -646.41397711
  atomic energy  EATOM  =     11693.69420960
  Solvation  Ediel_sol  =         0.00000000
  ---------------------------------------------------
  free energy    TOTEN  =       -92.04029765 eV

  energy without entropy =      -92.00279075  energy(sigma->0) =      -92.02779535


--------------------------------------------------------------------------------------------------------




--------------------------------------- Iteration      1(  17)  ---------------------------------------


    POTLOK:  cpu time    0.0170: real time    0.0245
    SETDIJ:  cpu time    0.0021: real time    0.0021
     EDDAV:  cpu time   12.5787: real time   12.5803
       DOS:  cpu time    0.0018: real time    0.0018
    CHARGE:  cpu time    0.3168: real time    0.3169
    MIXING:  cpu time    0.0011: real time    0.0011
    --------------------------------------------
      LOOP:  cpu time   12.9174: real time   12.9266

 eigenvalue-minimisations  : 14472
 total energy-change (2. order) : 0.5736718E-02  (-0.4310966E-02)
 number of electron     160.0000096 magnetization 
 augmentation part       50.0829279 magnetization 

 Broyden mixing:
  rms(total) = 0.47380E-01    rms(broyden)= 0.47371E-01
  rms(prec ) = 0.51346E-01
  weight for this iteration     100.00

 eigenvalues of (default mixing * dielectric matrix)
  average eigenvalue GAMMA=   0.8246
  2.4410  2.4410  1.2527  0.7852  0.7852  0.4690  0.4690  0.3411  0.2990  0.2990
  0.2350  0.0779

 Free energy of the ion-electron system (eV)
  ---------------------------------------------------
  alpha Z        PSCENC =       303.52543553
  Ewald energy   TEWEN  =     98433.56053661
  -Hartree energ DENC   =   -110332.95506085
  -exchange      EXHF   =         0.00000000
  -V(xc)+E(xc)   XCENC  =        40.58842756
  PAW double counting   =     14188.87239972   -13773.87728196
  entropy T*S    EENTRO =        -0.04053660
  eigenvalues    EBANDS =      -645.40269055
  atomic energy  EATOM  =     11693.69420960
  Solvation  Ediel_sol  =         0.00000000
  ---------------------------------------------------
  free energy    TOTEN  =       -92.03456094 eV

  energy without entropy =      -91.99402434  energy(sigma->0) =      -92.02104874


--------------------------------------------------------------------------------------------------------




--------------------------------------- Iteration      1(  18)  ---------------------------------------


    POTLOK:  cpu time    0.0166: real time    0.0166
    SETDIJ:  cpu time    0.0021: real time    0.0021
     EDDAV:  cpu time   10.1619: real time   10.1632
       DOS:  cpu time    0.0017: real time    0.0017
    CHARGE:  cpu time    0.3191: real time    0.3191
    MIXING:  cpu time    0.0013: real time    0.0013
    --------------------------------------------
      LOOP:  cpu time   10.5027: real time   10.5040

 eigenvalue-minimisations  : 11448
 total energy-change (2. order) : 0.9557141E-03  (-0.7684857E-03)
 number of electron     160.0000096 magnetization 
 augmentation part       50.0846205 magnetization 

 Broyden mixing:
  rms(total) = 0.18920E-01    rms(broyden)= 0.18916E-01
  rms(prec ) = 0.20720E-01
  weight for this iteration     100.00

 eigenvalues of (default mixing * dielectric matrix)
  average eigenvalue GAMMA=   0.8257
  2.3307  2.3307  1.3614  0.8625  0.8625  0.7245  0.5887  0.4178  0.3448  0.2990
  0.2990  0.2347  0.0779

 Free energy of the ion-electron system (eV)
  ---------------------------------------------------
  alpha Z        PSCENC =       303.52543553
  Ewald energy   TEWEN  =     98433.56053661
  -Hartree energ DENC   =   -110333.28130680
  -exchange      EXHF   =         0.00000000
  -V(xc)+E(xc)   XCENC  =        40.59231813
  PAW double counting   =     14185.82520310   -13770.80885766
  entropy T*S    EENTRO =        -0.04055451
  eigenvalues    EBANDS =      -645.10058922
  atomic energy  EATOM  =     11693.69420960
  Solvation  Ediel_sol  =         0.00000000
  ---------------------------------------------------
  free energy    TOTEN  =       -92.03360522 eV

[...]
     80      -0.8043      0.90523
     81      -0.7713      0.63617
     82      -0.7076      0.21813
     83      -0.6668      0.05171
     84      -0.5416     -0.06566
     85      -0.4524     -0.02771
     86      -0.3534     -0.00518
     87       1.1408     -0.00000
     88       1.1600     -0.00000
     89       1.3309     -0.00000
     90       1.5830     -0.00000
     91       1.7845     -0.00000
     92       1.9233     -0.00000
     93       2.7321     -0.00000
     94       2.9532     -0.00000
     95       3.2679     -0.00000
     96       4.3548     -0.00000

 k-point    51 :      -0.4375    0.4375    0.0000
  band No.  band energies     occupation 
      1      -8.3139      2.00000
      2      -8.2922      2.00000
      3      -7.3161      2.00000
      4      -7.2592      2.00000
      5      -6.8432      2.00000
      6      -6.5822      2.00000
      7      -6.5163      2.00000
      8      -6.4600      2.00000
      9      -6.3690      2.00000
     10      -6.2730      2.00000
     11      -6.2324      2.00000
     12      -6.1532      2.00000
     13      -6.1431      2.00000
     14      -5.9704      2.00000
     15      -5.8006      2.00000
     16      -5.7160      2.00000
     17      -5.7055      2.00000
     18      -5.6813      2.00000
     19      -5.5513      2.00000
     20      -5.4803      2.00000
     21      -5.3500      2.00000
     22      -5.3039      2.00000
     23      -5.2832      2.00000
     24      -5.2059      2.00000
     25      -5.1725      2.00000
     26      -5.0926      2.00000
     27      -5.0803      2.00000
     28      -5.0256      2.00000
     29      -4.8120      2.00000
     30      -4.7240      2.00000
     31      -4.6706      2.00000
     32      -4.6100      2.00000
     33      -4.5610      2.00000
     34      -4.4664      2.00000
     35      -4.4330      2.00000
     36      -4.3181      2.00000
     37      -4.2459      2.00000
     38      -4.1537      2.00000
     39      -4.1140      2.00000
     40      -4.0982      2.00000
     41      -4.0345      2.00000
     42      -3.9366      2.00000
     43      -3.8363      2.00000
     44      -3.7509      2.00000
     45      -3.7067      2.00000
     46      -3.6749      2.00000
     47      -3.6413      2.00000
     48      -3.6054      2.00000
     49      -3.5815      2.00000
     50      -3.4933      2.00000
     51      -3.3707      2.00000
     52      -3.2892      2.00000
     53      -3.1438      2.00000
     54      -2.9942      2.00000
     55      -2.9505      2.00000
     56      -2.9034      2.00000
     57      -2.8875      2.00000
     58      -2.8254      2.00000
     59      -2.7007      2.00000
     60      -2.5965      2.00000
     61      -2.5323      2.00000
     62      -2.4848      2.00000
     63      -2.4108      2.00000
     64      -2.3285      2.00000
     65      -2.2208      2.00000
     66      -2.1762      2.00000
     67      -2.1170      2.00000
     68      -2.0588      2.00000
     69      -1.9917      2.00000
     70      -1.9247      2.00000
     71      -1.8731      2.00000
     72      -1.8036      2.00000
     73      -1.7116      2.00000
     74      -1.6063      2.00000
     75      -1.4448      2.00008
     76      -1.2801      2.00492
     77      -1.2618      2.00705
     78      -1.1633      2.03375
     79      -0.9929      2.01812
     80      -0.8993      1.64485
     81      -0.8572      1.34500
     82      -0.7888      0.77679
     83      -0.6455     -0.00351
     84      -0.6141     -0.05164
     85      -0.4500     -0.02679
     86      -0.3870     -0.00982
     87       0.2037     -0.00000
     88       0.4916     -0.00000
     89       1.4376     -0.00000
     90       1.5469     -0.00000
     91       1.5782     -0.00000
     92       2.3466     -0.00000
     93       3.1589     -0.00000
     94       3.4186     -0.00000
     95       3.9387     -0.00000
     96       3.9844     -0.00000

 k-point    52 :       0.1250   -0.4375    0.0000
  band No.  band energies     occupation 
      1      -8.3172      2.00000
      2      -8.2892      2.00000
      3      -7.3190      2.00000
      4      -7.2553      2.00000
      5      -6.8440      2.00000
      6      -6.5845      2.00000
      7      -6.5205      2.00000
      8      -6.4624      2.00000
      9      -6.3661      2.00000
     10      -6.2726      2.00000
     11      -6.2169      2.00000
     12      -6.1561      2.00000
     13      -6.1515      2.00000
     14      -5.9677      2.00000
     15      -5.8032      2.00000
     16      -5.7193      2.00000
     17      -5.7043      2.00000
     18      -5.6793      2.00000
     19      -5.5424      2.00000
     20      -5.4815      2.00000
     21      -5.3524      2.00000
     22      -5.3094      2.00000
     23      -5.2733      2.00000
     24      -5.2152      2.00000
     25      -5.1683      2.00000
     26      -5.0938      2.00000
     27      -5.0791      2.00000
     28      -5.0407      2.00000
     29      -4.7789      2.00000
     30      -4.7290      2.00000
     31      -4.6738      2.00000
     32      -4.6109      2.00000
     33      -4.5650      2.00000
     34      -4.4733      2.00000
     35      -4.4399      2.00000
     36      -4.3248      2.00000
     37      -4.2286      2.00000
     38      -4.1526      2.00000
     39      -4.1216      2.00000
     40      -4.0933      2.00000
     41      -4.0507      2.00000
     42      -3.9328      2.00000
     43      -3.8316      2.00000
     44      -3.7328      2.00000
     45      -3.7149      2.00000
     46      -3.6834      2.00000
     47      -3.6421      2.00000
     48      -3.6110      2.00000
     49      -3.5736      2.00000
     50      -3.4651      2.00000
     51      -3.3747      2.00000
     52      -3.3130      2.00000
     53      -3.1765      2.00000
     54      -2.9940      2.00000
     55      -2.9432      2.00000
     56      -2.8847      2.00000
     57      -2.8659      2.00000
     58      -2.8273      2.00000
     59      -2.6949      2.00000
     60      -2.6026      2.00000
     61      -2.5371      2.00000
     62      -2.4850      2.00000
     63      -2.4031      2.00000
     64      -2.3479      2.00000
     65      -2.2271      2.00000
     66      -2.1911      2.00000
     67      -2.1288      2.00000
     68      -2.0394      2.00000
     69      -1.9719      2.00000
     70      -1.9095      2.00000
     71      -1.8767      2.00000
     72      -1.8032      2.00000
     73      -1.7067      2.00000
     74      -1.5724      2.00000
     75      -1.4602      2.00005
     76      -1.3590      2.00083
     77      -1.2931      2.00377
     78      -1.0906      2.06524
     79      -0.9742      1.97682
     80      -0.9029      1.66712
     81      -0.8671      1.42094
     82      -0.7673      0.60519
     83      -0.6907      0.13896
     84      -0.5933     -0.06630
     85      -0.4299     -0.02003
     86      -0.4092     -0.01443
     87       0.2033     -0.00000
     88       0.4918     -0.00000
     89       1.4433     -0.00000
     90       1.5134     -0.00000
     91       1.6069     -0.00000
     92       2.3512     -0.00000
     93       3.1426     -0.00000
     94       3.4322     -0.00000
     95       3.9313     -0.00000
     96       3.9899     -0.00000


--------------------------------------------------------------------------------------------------------


 soft charge-density along one line, spin component           1
         0         1         2         3         4         5         6         7         8         9
 total charge-density along one line
 
 pseudopotential strength for first ion, spin component:           1
 -8.313  -0.002  -0.000  -0.014  -0.000  -8.523  -0.002  -0.000
 -0.002  -8.241  -0.001  -0.000  -0.012  -0.002  -8.452  -0.001
 -0.000  -0.001  -8.240  -0.001  -0.000  -0.000  -0.001  -8.451
 -0.014  -0.000  -0.001  -8.241  -0.002  -0.014  -0.000  -0.001
 -0.000  -0.012  -0.000  -0.002  -8.313  -0.000  -0.012  -0.000
 -8.523  -0.002  -0.000  -0.014  -0.000  -8.719  -0.002  -0.000
 -0.002  -8.452  -0.001  -0.000  -0.012  -0.002  -8.648  -0.001
 -0.000  -0.001  -8.451  -0.001  -0.000  -0.000  -0.001  -8.647
 -0.014  -0.000  -0.001  -8.452  -0.002  -0.014  -0.000  -0.001
 -0.000  -0.012  -0.000  -0.002  -8.523  -0.000  -0.012  -0.000
  0.000   0.001  -0.020   0.001   0.000   0.000   0.001  -0.020
  0.000   0.001  -0.031   0.002   0.000   0.000   0.001  -0.031
  0.000  -0.007  -0.000   0.000   0.000   0.000  -0.007  -0.000
  0.000   0.000  -0.014   0.000   0.000   0.000   0.000  -0.013
  0.000   0.000  -0.000  -0.007   0.000   0.000   0.000  -0.000
  0.000  -0.006  -0.000   0.000   0.000   0.000  -0.006  -0.000
  0.000   0.000  -0.015   0.000   0.000   0.000   0.000  -0.015
  0.000   0.000  -0.000  -0.006   0.000   0.000   0.000  -0.000
 total augmentation occupancy for first ion, spin component:           1
  2.641  -0.017  -0.007  -0.349  -0.004  -1.867   0.011   0.004   0.122   0.003  -0.003  -0.000  -0.000   0.001  -0.041   0.000
 -0.017   3.358  -0.003  -0.005  -0.330   0.011  -1.857   0.002   0.002   0.116  -0.005   0.000  -0.236  -0.000  -0.001   0.008
 -0.007  -0.003   3.625  -0.005  -0.004   0.004   0.002  -2.346   0.004   0.002   0.662  -0.060  -0.001  -0.237  -0.002  -0.000
 -0.349  -0.005  -0.005   3.353  -0.017   0.128   0.002   0.004  -1.855   0.011  -0.009   0.000  -0.001  -0.000  -0.237   0.000
 -0.004  -0.330  -0.004  -0.017   2.646   0.003   0.110   0.002   0.011  -1.870  -0.002  -0.000  -0.041   0.000  -0.000   0.003
 -1.867   0.011   0.004   0.128   0.003   2.527  -0.008  -0.003   0.026  -0.002   0.002   0.000   0.000  -0.000   0.043   0.000
  0.011  -1.857   0.002   0.002   0.110  -0.008   1.952  -0.002  -0.001   0.034   0.003   0.000   0.229   0.000   0.001  -0.016
  0.004   0.002  -2.346   0.004   0.002  -0.003  -0.002   2.621  -0.004  -0.001  -0.696   0.088   0.001   0.327   0.001  -0.000
  0.122   0.002   0.004  -1.855   0.011   0.026  -0.001  -0.004   1.950  -0.008   0.005   0.001   0.001   0.000   0.230   0.000
  0.003   0.116   0.002   0.011  -1.870  -0.002   0.034  -0.001  -0.008   2.530   0.001   0.000   0.043  -0.000   0.000  -0.003
 -0.003  -0.005   0.662  -0.009  -0.002   0.002   0.003  -0.696   0.005   0.001   2.089  -0.341  -0.000   0.173  -0.000   0.000
 -0.000   0.000  -0.060   0.000  -0.000   0.000   0.000   0.088   0.001   0.000  -0.341   0.073  -0.000  -0.050  -0.000  -0.000
 -0.000  -0.236  -0.001  -0.001  -0.041   0.000   0.229   0.001   0.001   0.043  -0.000  -0.000   0.265   0.000  -0.000  -0.014
  0.001  -0.000  -0.237  -0.000   0.000  -0.000   0.000   0.327   0.000  -0.000   0.173  -0.050   0.000   0.146   0.001  -0.000
 -0.041  -0.001  -0.002  -0.237  -0.000   0.043   0.001   0.001   0.230   0.000  -0.000  -0.000  -0.000   0.001   0.265   0.000
  0.000   0.008  -0.000   0.000   0.003   0.000  -0.016  -0.000   0.000  -0.003   0.000  -0.000  -0.014  -0.000   0.000   0.001
 -0.000   0.000  -0.003   0.000  -0.000   0.000   0.000  -0.019   0.000   0.000  -0.018   0.004  -0.000  -0.009  -0.000   0.000
  0.003   0.000  -0.000   0.008   0.000  -0.003   0.000  -0.000  -0.016   0.000   0.000  -0.000   0.000  -0.000  -0.014  -0.000


------------------------ aborting loop because EDIFF is reached ----------------------------------------



 DIPCOR: dipole corrections for dipol
 direction  3 min pos   288,
 dipolmoment           0.000000      0.000000     -0.019640 electrons x Angstroem
 Tr[quadrupol]      -966.621828

 energy correction for charged system         0.000000 eV
 dipol+quadrupol energy correction            0.000042 eV
 added-field ion interaction          0.000000 eV  (added to PSCEN)

 
  *************** adding dipol energy to TOTEN NOW **************** 
    CHARGE:  cpu time    0.3173: real time    0.3174
    FORLOC:  cpu time    0.0023: real time    0.0023
    FORNL :  cpu time    4.5449: real time    4.5454
    STRESS:  cpu time    7.6136: real time    7.6144
    FORCOR:  cpu time    0.0196: real time    0.0199
    FORHAR:  cpu time    0.0055: real time    0.0056
    MIXING:  cpu time    0.0016: real time    0.0016
    OFIELD:  cpu time    0.0000: real time    0.0000

  FORCE on cell =-STRESS in cart. coord.  units (eV):
  Direction    XX          YY          ZZ          XY          YZ          ZX
  --------------------------------------------------------------------------------------
  Alpha Z   303.52544   303.52544   303.52544
  Ewald  107325.74714107325.74110************     0.00523    -0.00000    -0.00000
  Hartree109639.28525109639.30046************    -0.01317    -0.03758    -0.06510
  E(xc)    -709.69051  -709.69518  -714.43400     0.00404     0.00812     0.01407
  Local  ************************222308.75129     0.08692     0.17520     0.30345
  n-local    55.74304    62.64024    42.20600     1.99215     0.43710    -0.21806
  augment   834.47584   834.51485   862.15695    -0.03379    -0.06101    -0.10547
  Kinetic  2279.77349  2284.70251  2353.04772     1.32877     0.33992    -0.48885
  Fock        0.00000     0.00000     0.00000     0.00000     0.00000     0.00000
  -------------------------------------------------------------------------------------
  Total     -11.25184   -11.22783    -0.44316    -0.02079    -0.02591    -0.04488
  in kB     -21.87457   -21.82789    -0.86155    -0.04043    -0.05037    -0.08725
  external pressure =      -14.85 kB  Pullay stress =        0.00 kB


 VOLUME and BASIS-vectors are now :
 -----------------------------------------------------------------------------
  energy-cutoff  :      350.00
  volume of cell :      824.13
      direct lattice vectors                 reciprocal lattice vectors
     5.557859300  0.000000000  0.000000000     0.179925390 -0.103879972  0.000000000
     2.778929650  4.813247345  0.000000000     0.000000000  0.207759944  0.000000000
     0.000000000  0.000000000 30.806959674     0.000000000  0.000000000  0.032460198

  length of vectors
     5.557859300  5.557859300 30.806959674     0.207759944  0.207759944  0.032460198


 FORCES acting on ions
    electron-ion (+dipol)            ewald-force                    non-local-force                 convergence-correction
 -----------------------------------------------------------------------------------------------
   -.200E-01 -.115E-01 0.257E+04   -.872E-12 -.468E-12 -.256E+04   -.210E-01 -.121E-01 -.153E+00   0.157E-02 0.905E-03 -.104E+00
   0.249E-01 -.501E-01 0.285E+04   -.950E-12 -.564E-12 -.285E+04   0.132E-01 0.680E-01 -.754E+00   -.173E-02 -.451E-02 -.117E+00
   -.310E-01 0.466E-01 0.285E+04   -.945E-12 -.586E-12 -.285E+04   0.655E-01 -.226E-01 -.754E+00   -.477E-02 0.755E-03 -.117E+00
   0.248E-01 0.143E-01 0.285E+04   -.945E-12 -.586E-12 -.285E+04   -.454E-01 -.262E-01 -.731E+00   0.472E-02 0.273E-02 -.118E+00
   0.470E+01 0.271E+01 0.100E+04   -.489E+01 -.282E+01 -.100E+04   0.397E-01 0.229E-01 -.166E+00   0.155E-02 0.897E-03 -.919E-01
   -.471E+01 0.301E+01 0.100E+04   0.489E+01 -.310E+01 -.100E+04   -.371E-01 0.845E-02 -.269E+00   -.153E-02 0.786E-03 -.912E-01
   0.251E+00 -.558E+01 0.100E+04   -.242E+00 0.578E+01 -.100E+04   -.112E-01 -.363E-01 -.269E+00   -.854E-04 -.172E-02 -.912E-01
   -.252E+00 -.145E+00 0.997E+03   0.242E+00 0.140E+00 -.996E+03   0.841E-02 0.486E-02 -.308E+00   0.981E-04 0.566E-04 -.939E-01
   -.467E+01 0.299E+01 -.897E+03   0.479E+01 -.305E+01 0.897E+03   0.173E-01 -.266E-01 0.391E+00   -.819E-03 0.554E-02 0.200E-01
   0.468E+01 0.270E+01 -.898E+03   -.479E+01 -.277E+01 0.897E+03   -.237E-01 -.137E-01 0.507E+00   0.810E-03 0.468E-03 0.221E-01
   -.252E+00 -.146E+00 -.902E+03   0.247E+00 0.142E+00 0.902E+03   0.165E-01 0.952E-02 0.326E+00   -.434E-02 -.251E-02 0.174E-01
   0.255E+00 -.554E+01 -.897E+03   -.247E+00 0.568E+01 0.897E+03   -.144E-01 0.282E-01 0.391E+00   0.439E-02 -.348E-02 0.200E-01
   0.439E-01 0.253E-01 -.281E+04   0.935E-12 0.560E-12 0.281E+04   -.580E-01 -.335E-01 0.993E+00   0.276E-02 0.159E-02 0.437E-01
   -.392E-01 0.396E-01 -.281E+04   0.960E-12 0.528E-12 0.281E+04   0.447E-01 -.142E-01 0.995E+00   -.279E-02 -.543E-02 0.490E-01
   0.148E-01 -.537E-01 -.281E+04   0.966E-12 0.521E-12 0.281E+04   0.100E-01 0.458E-01 0.995E+00   -.610E-02 0.301E-03 0.490E-01
   -.887E-02 -.512E-02 -.309E+04   0.999E-12 0.604E-12 0.309E+04   -.142E-01 -.818E-02 0.345E+00   0.691E-02 0.399E-02 0.534E-01
 -----------------------------------------------------------------------------------------------
   0.931E-02 0.538E-02 -.992E+00   0.135E-13 0.204E-13 0.909E-12   -.977E-02 -.564E-02 0.154E+01   0.650E-03 0.375E-03 -.550E+00
 
 
 POSITION                                       TOTAL-FORCE (eV/Angst)
 -----------------------------------------------------------------------------------
      0.00000      0.00000     12.00000        -0.039431     -0.022765      1.071053
      2.77893      0.00000     12.00000         0.036325      0.013344     -0.168124
      1.38946      2.40662     12.00000         0.029719      0.024786     -0.168124
      4.16839      2.40662     12.00000        -0.015900     -0.009180     -0.153467
      1.38946      0.80221     14.31554        -0.146001     -0.084294     -0.493954
      4.16839      0.80221     14.31554         0.141370     -0.084573     -0.223089
      2.77893      3.20883     14.31554        -0.002557      0.164717     -0.223089
      5.55786      3.20883     14.31554        -0.001487     -0.000858      0.116796
      5.55786      1.60442     16.61120         0.135358     -0.079957     -0.106427
      2.77893      1.60442     16.61120        -0.136158     -0.078611     -0.320401
      6.94732      4.01104     16.61120         0.006429      0.003712      0.153641
      4.16839      4.01104     16.61120        -0.001566      0.157202     -0.106427
      0.00000      0.00000     18.94198        -0.011400     -0.006582     -0.142499
      2.77893      0.00000     18.94198         0.002758      0.019975     -0.147789
      1.38946      2.40662     18.94198         0.018678     -0.007599     -0.147789
      4.16839      2.40662     18.94198        -0.016136     -0.009316      1.059689
 -----------------------------------------------------------------------------------
    total drift:                                0.000191      0.000110     -0.001696


--------------------------------------------------------------------------------------------------------



  FREE ENERGIE OF THE ION-ELECTRON SYSTEM (eV)
  ---------------------------------------------------
  free  energy   TOTEN  =       -92.03333441 eV

  energy  without entropy=      -91.99316828  energy(sigma->0) =      -92.01994570
 


--------------------------------------------------------------------------------------------------------


    POTLOK:  cpu time    0.0200: real time    0.0200


--------------------------------------------------------------------------------------------------------


     LOOP+:  cpu time  277.1056: real time  277.1989
    4ORBIT:  cpu time    0.0000: real time    0.0000

 total amount of memory used by VASP MPI-rank0   362189. kBytes
=======================================================================

   base      :      30000. kBytes
   nonl-proj :     280273. kBytes
   fftplans  :       2015. kBytes
   grid      :       7641. kBytes
   one-center:        248. kBytes
   wavefun   :      42012. kBytes
 
  
  
 General timing and accounting informations for this job:
 ========================================================
  
                  Total CPU time used (sec):      282.520
                            User time (sec):      281.563
                          System time (sec):        0.957
                         Elapsed time (sec):      282.764
  
                   Maximum memory used (kb):      403868.
                   Average memory used (kb):           0.
  
                          Minor page faults:        73018
                          Major page faults:            0
                 Voluntary context switches:          774
