   17   17  500    1
  0.4847811E+02  0.5557859E-09  0.5557859E-09  0.3080696E-08  0.5000000E-15
  1.000000000000000E-004
  CAR 
 unknown system                          
    161     20    112
 
  0.6250000E-01  0.6250000E-01  0.0000000E+00  0.3125000E-01
    1      -10.031575   1.000000
    2       -8.784105   1.000000
    3       -7.699871   1.000000
    4       -7.572731   1.000000
    5       -7.314014   1.000000
    6       -7.280624   1.000000
    7       -7.268641   1.000000
    8       -7.155019   1.000000
    9       -7.121047   1.000000
   10       -7.111696   1.000000
   11       -6.744006   1.000000
   12       -6.661399   1.000000
   13       -6.660837   1.000000
   14       -6.503666   1.000000
   15       -6.478732   1.000000
   16       -6.469729   1.000000
   17       -6.397776   1.000000
   18       -6.371597   1.000000
   19       -6.361927   1.000000
   20       -5.909544   1.000000
   21       -5.544106   1.000000
   22       -5.543657   1.000000
   23       -5.396618   1.000000
   24       -4.660546   1.000000
   25       -4.659127   1.000000
   26       -4.584134   1.000000
   27       -4.519195   1.000000
   28       -4.518833   1.000000
   29       -4.493645   1.000000
   30       -4.461623   1.000000
   31       -4.223286   1.000000
   32       -4.212349   1.000000
   33       -4.174618   1.000000
   34       -4.055142   1.000000
   35       -4.024213   1.000000
   36       -3.827494   1.000000
   37       -3.800082   1.000000
   38       -3.789692   1.000000
   39       -3.750169   1.000000
   40       -3.707973   1.000000
   41       -3.646870   1.000000
   42       -3.604860   1.000000
   43       -3.382539   1.000000
   44       -3.317356   1.000000
   45       -3.310573   1.000000
   46       -3.020729   1.000000
   47       -2.911780   1.000000
   48       -2.837887   1.000000
   49       -2.772397   1.000000
   50       -2.690680   1.000000
   51       -2.633017   1.000000
   52       -2.331237   1.000000
   53       -2.203290   1.000000
   54       -2.196918   1.000000
   55       -1.845929   1.000000
   56       -1.837471   1.000000
   57       -1.699983   1.000000
   58       -1.696980   1.000000
   59       -1.612502   1.000000
   60       -1.545558   1.000000
   61       -1.490799   1.000000
   62       -1.488278   1.000000
   63       -1.196086   1.001371
   64       -1.192798   1.001472
   65       -1.004393   1.027499
   66       -0.987665   1.031027
   67       -0.971956   1.033682
   68       -0.929315   1.033819
   69       -0.880445   1.008467
   70       -0.857736   0.982006
   71       -0.834643   0.943038
   72       -0.735954   0.634488
   73       -0.664008   0.335620
   74       -0.634422   0.225411
   75       -0.555831   0.027120
   76       -0.434281  -0.033514
   77       -0.431179  -0.033046
   78       -0.407152  -0.028412
   79       -0.292612  -0.006655
   80       -0.274303  -0.004832
   81       -0.220437  -0.001669
   82       -0.186425  -0.000780
   83       -0.173272  -0.000571
   84       -0.115065  -0.000128
   85       -0.094041  -0.000071
   86        0.050606  -0.000001
   87        0.425655  -0.000000
   88        0.482757  -0.000000
   89        1.302750  -0.000000
   90        1.508291  -0.000000
   91        1.741489  -0.000000
   92        1.753701  -0.000000
   93        1.787641  -0.000000
   94        1.880890  -0.000000
   95        2.504854  -0.000000
   96        2.690304  -0.000000
   97        2.879135  -0.000000
   98        3.336792  -0.000000
   99        4.449127  -0.000000
  100        4.749385  -0.000000
  101        5.100280   0.000000
  102        5.209289   0.000000
  103        5.220156   0.000000
  104        5.299753   0.000000
  105        5.446930   0.000000
  106        5.458374   0.000000
  107        5.467654   0.000000
  108        5.733099   0.000000
  109        5.884613   0.000000
  110        6.003619   0.000000
  111        6.280855   0.000000
  112        6.610622   0.000000
 
  0.1875000E+00  0.6250000E-01  0.0000000E+00  0.6250000E-01
    1       -9.827914   1.000000
    2       -8.584524   1.000000
    3       -7.495215   1.000000
    4       -7.378568   1.000000
    5       -7.288188   1.000000
    6       -7.208317   1.000000
    7       -7.092132   1.000000
    8       -7.062934   1.000000
    9       -7.010335   1.000000
   10       -6.937956   1.000000
   11       -6.651832   1.000000
   12       -6.565011   1.000000
   13       -6.558697   1.000000
   14       -6.466842   1.000000
   15       -6.394914   1.000000
   16       -6.287183   1.000000
   17       -6.269622   1.000000
   18       -6.239269   1.000000
   19       -6.169462   1.000000
   20       -5.859096   1.000000
   21       -5.484044   1.000000
   22       -5.482123   1.000000
   23       -5.345884   1.000000
   24       -4.718460   1.000000
   25       -4.672340   1.000000
   26       -4.623988   1.000000
   27       -4.535064   1.000000
   28       -4.457236   1.000000
   29       -4.449047   1.000000
   30       -4.417120   1.000000
   31       -4.354461   1.000000
   32       -4.318341   1.000000
   33       -4.024240   1.000000
   34       -3.966972   1.000000
   35       -3.931704   1.000000
   36       -3.871672   1.000000
   37       -3.854547   1.000000
   38       -3.810691   1.000000
   39       -3.768638   1.000000
   40       -3.723673   1.000000
   41       -3.578401   1.000000
   42       -3.528147   1.000000
   43       -3.497128   1.000000
   44       -3.472880   1.000000
   45       -3.443933   1.000000
   46       -3.320699   1.000000
   47       -3.167938   1.000000
   48       -3.037669   1.000000
   49       -2.779692   1.000000
   50       -2.686058   1.000000
   51       -2.609644   1.000000
   52       -2.565712   1.000000
   53       -2.331961   1.000000
   54       -2.283166   1.000000
   55       -1.994658   1.000000
   56       -1.910259   1.000000
   57       -1.855048   1.000000
   58       -1.792759   1.000000
   59       -1.747855   1.000000
   60       -1.727772   1.000000
   61       -1.708959   1.000000
   62       -1.678112   1.000000
   63       -1.569028   1.000000
   64       -1.502277   1.000000
   65       -1.449114   1.000001
   66       -1.373567   1.000012
   67       -1.219835   1.000802
   68       -1.102667   1.008130
   69       -1.049421   1.017321
   70       -1.011606   1.025862
   71       -0.961535   1.034874
   72       -0.895651   1.020424
   73       -0.878721   1.006835
   74       -0.817714   0.906105
   75       -0.773503   0.776327
   76       -0.758836   0.723719
   77       -0.696203   0.468256
   78       -0.639008   0.241456
   79       -0.609509   0.146240
   80       -0.577195   0.065902
   81       -0.500832  -0.026557
   82       -0.392922  -0.025197
   83       -0.378186  -0.021793
   84       -0.359135  -0.017562
   85       -0.212504  -0.001406
   86        0.264167  -0.000000
   87        0.348222  -0.000000
   88        0.625278  -0.000000
   89        0.924622  -0.000000
   90        1.128950  -0.000000
   91        1.385608  -0.000000
   92        1.656346  -0.000000
   93        2.252381  -0.000000
   94        2.552240  -0.000000
   95        2.822910  -0.000000
   96        3.144652  -0.000000
   97        3.588610  -0.000000
   98        4.103472  -0.000000
   99        4.631235  -0.000000
  100        4.899613   0.000000
  101        5.179232   0.000000
  102        5.249570   0.000000
  103        5.292790   0.000000
  104        5.362447   0.000000
  105        5.570469   0.000000
  106        5.680596   0.000000
  107        5.914098   0.000000
  108        6.080925   0.000000
  109        6.369956   0.000000
  110        6.483939   0.000000
  111        6.745178   0.000000
  112        6.841985   0.000000
 
  0.3125000E+00  0.6250000E-01  0.0000000E+00  0.6250000E-01
    1       -9.375006   1.000000
    2       -8.153658   1.000000
    3       -7.386108   1.000000
    4       -7.062645   1.000000
    5       -6.978578   1.000000
    6       -6.962252   1.000000
    7       -6.935929   1.000000
    8       -6.758904   1.000000
    9       -6.710629   1.000000
   10       -6.625970   1.000000
   11       -6.497679   1.000000
   12       -6.405275   1.000000
   13       -6.331074   1.000000
   14       -6.296518   1.000000
   15       -6.138337   1.000000
   16       -6.106532   1.000000
   17       -5.947203   1.000000
   18       -5.888316   1.000000
   19       -5.790673   1.000000
   20       -5.673478   1.000000
   21       -5.361088   1.000000
   22       -5.347070   1.000000
   23       -5.239766   1.000000
   24       -4.883145   1.000000
   25       -4.810495   1.000000
   26       -4.743487   1.000000
   27       -4.659179   1.000000
   28       -4.587824   1.000000
   29       -4.553951   1.000000
   30       -4.341904   1.000000
   31       -4.266924   1.000000
   32       -4.172883   1.000000
   33       -4.055819   1.000000
   34       -4.048922   1.000000
   35       -4.016917   1.000000
   36       -3.948641   1.000000
   37       -3.904413   1.000000
   38       -3.790384   1.000000
   39       -3.764260   1.000000
   40       -3.729963   1.000000
   41       -3.686947   1.000000
   42       -3.667788   1.000000
   43       -3.644615   1.000000
   44       -3.637979   1.000000
   45       -3.514033   1.000000
   46       -3.385960   1.000000
   47       -3.250794   1.000000
   48       -3.152943   1.000000
   49       -3.122666   1.000000
   50       -2.797765   1.000000
   51       -2.743348   1.000000
   52       -2.690803   1.000000
   53       -2.631515   1.000000
   54       -2.606479   1.000000
   55       -2.540312   1.000000
   56       -2.486873   1.000000
   57       -2.426481   1.000000
   58       -2.395344   1.000000
   59       -2.340958   1.000000
   60       -2.267959   1.000000
   61       -2.189731   1.000000
   62       -1.981092   1.000000
   63       -1.954986   1.000000
   64       -1.898286   1.000000
   65       -1.815144   1.000000
   66       -1.760048   1.000000
   67       -1.611736   1.000000
   68       -1.508872   1.000000
   69       -1.480568   1.000000
   70       -1.435286   1.000001
   71       -1.394412   1.000006
   72       -1.308947   1.000081
   73       -1.198030   1.001313
   74       -1.142505   1.004066
   75       -1.121079   1.005978
   76       -1.032275   1.021099
   77       -0.986994   1.031157
   78       -0.833367   0.940505
   79       -0.773909   0.777723
   80       -0.765615   0.748547
   81       -0.735446   0.632427
   82       -0.696513   0.469566
   83       -0.616880   0.168181
   84       -0.476461  -0.034101
   85       -0.421848  -0.031427
   86        0.006835  -0.000003
   87        0.411280  -0.000000
   88        0.676676  -0.000000
   89        1.038388  -0.000000
   90        1.492722  -0.000000
   91        1.831883  -0.000000
   92        2.013687  -0.000000
   93        2.375152  -0.000000
   94        2.524353  -0.000000
   95        3.254645  -0.000000
   96        3.629754  -0.000000
   97        4.263475  -0.000000
   98        4.499111  -0.000000
   99        4.963998   0.000000
  100        5.247499   0.000000
  101        5.427086   0.000000
  102        5.605530   0.000000
  103        5.632419   0.000000
  104        5.695894   0.000000
  105        5.886194   0.000000
  106        6.174390   0.000000
  107        6.564693   0.000000
  108        6.761781   0.000000
  109        6.899980   0.000000
  110        7.081577   0.000000
  111        7.283991   0.000000
  112        7.559522   0.000000
 
  0.4375000E+00  0.6250000E-01  0.0000000E+00  0.6250000E-01
    1       -8.736917   1.000000
    2       -7.752633   1.000000
    3       -7.598296   1.000000
    4       -7.014857   1.000000
    5       -6.630409   1.000000
    6       -6.579626   1.000000
    7       -6.492851   1.000000
    8       -6.415338   1.000000
    9       -6.395504   1.000000
   10       -6.370078   1.000000
   11       -6.315612   1.000000
   12       -6.154229   1.000000
   13       -6.007703   1.000000
   14       -5.959882   1.000000
   15       -5.886221   1.000000
   16       -5.862724   1.000000
   17       -5.721933   1.000000
   18       -5.549146   1.000000
   19       -5.376832   1.000000
   20       -5.314217   1.000000
   21       -5.219992   1.000000
   22       -5.170319   1.000000
   23       -5.121921   1.000000
   24       -5.026230   1.000000
   25       -4.978451   1.000000
   26       -4.878865   1.000000
   27       -4.850376   1.000000
   28       -4.737606   1.000000
   29       -4.532604   1.000000
   30       -4.521729   1.000000
   31       -4.464055   1.000000
   32       -4.419854   1.000000
   33       -4.299020   1.000000
   34       -4.234995   1.000000
   35       -4.184613   1.000000
   36       -4.124850   1.000000
   37       -4.003209   1.000000
   38       -3.881834   1.000000
   39       -3.856550   1.000000
   40       -3.771446   1.000000
   41       -3.663621   1.000000
   42       -3.620362   1.000000
   43       -3.593005   1.000000
   44       -3.557944   1.000000
   45       -3.499490   1.000000
   46       -3.466261   1.000000
   47       -3.428840   1.000000
   48       -3.331393   1.000000
   49       -3.312077   1.000000
   50       -3.264220   1.000000
   51       -3.190341   1.000000
   52       -3.176792   1.000000
   53       -3.153081   1.000000
   54       -3.026230   1.000000
   55       -2.864719   1.000000
   56       -2.808060   1.000000
   57       -2.775974   1.000000
   58       -2.683624   1.000000
   59       -2.665627   1.000000
   60       -2.595636   1.000000
   61       -2.337160   1.000000
   62       -2.285787   1.000000
   63       -2.245956   1.000000
   64       -2.195452   1.000000
   65       -2.152496   1.000000
   66       -2.052676   1.000000
   67       -2.006463   1.000000
   68       -1.946539   1.000000
   69       -1.843843   1.000000
   70       -1.797923   1.000000
   71       -1.750451   1.000000
   72       -1.730664   1.000000
   73       -1.514180   1.000000
   74       -1.435389   1.000001
   75       -1.334811   1.000038
   76       -1.283329   1.000163
   77       -1.179537   1.001953
   78       -1.026270   1.022475
   79       -0.884279   1.011886
   80       -0.765680   0.748779
   81       -0.724731   0.588402
   82       -0.677413   0.389783
   83       -0.659333   0.317252
   84       -0.455639  -0.035421
   85       -0.419561  -0.030989
   86       -0.240526  -0.002533
   87        0.686050  -0.000000
   88        0.834991  -0.000000
   89        1.180562  -0.000000
   90        1.648043  -0.000000
   91        1.922848  -0.000000
   92        2.171237  -0.000000
   93        2.511060  -0.000000
   94        2.717544  -0.000000
   95        3.537110  -0.000000
   96        3.837376  -0.000000
   97        4.395457  -0.000000
   98        5.126547   0.000000
   99        5.336264   0.000000
  100        5.394355   0.000000
  101        5.795141   0.000000
  102        5.969387   0.000000
  103        6.192720   0.000000
  104        6.317745   0.000000
  105        6.405245   0.000000
  106        6.493924   0.000000
  107        6.806610   0.000000
  108        7.019140   0.000000
  109        7.155029   0.000000
  110        7.336725   0.000000
  111        7.372891   0.000000
  112        7.431195   0.000000
 
 -0.4375000E+00  0.6250000E-01  0.0000000E+00  0.6250000E-01
    1       -8.387104   1.000000
    2       -8.045960   1.000000
    3       -7.349472   1.000000
    4       -7.132836   1.000000
    5       -6.506971   1.000000
    6       -6.471224   1.000000
    7       -6.432864   1.000000
    8       -6.357704   1.000000
    9       -6.283047   1.000000
   10       -6.214024   1.000000
   11       -6.176507   1.000000
   12       -6.093471   1.000000
   13       -5.989927   1.000000
   14       -5.877414   1.000000
   15       -5.823235   1.000000
   16       -5.674359   1.000000
   17       -5.549450   1.000000
   18       -5.474396   1.000000
   19       -5.418006   1.000000
   20       -5.333846   1.000000
   21       -5.204965   1.000000
   22       -5.072166   1.000000
   23       -5.029064   1.000000
   24       -5.011322   1.000000
   25       -4.960015   1.000000
   26       -4.914399   1.000000
   27       -4.901082   1.000000
   28       -4.808195   1.000000
   29       -4.659528   1.000000
   30       -4.554538   1.000000
   31       -4.492121   1.000000
   32       -4.428676   1.000000
   33       -4.378455   1.000000
   34       -4.309329   1.000000
   35       -4.238467   1.000000
   36       -4.114456   1.000000
   37       -3.985873   1.000000
   38       -3.953682   1.000000
   39       -3.866523   1.000000
   40       -3.801800   1.000000
   41       -3.750218   1.000000
   42       -3.719549   1.000000
   43       -3.624097   1.000000
   44       -3.587368   1.000000
   45       -3.553991   1.000000
   46       -3.540612   1.000000
   47       -3.514894   1.000000
   48       -3.473879   1.000000
   49       -3.463211   1.000000
   50       -3.433294   1.000000
   51       -3.404522   1.000000
   52       -3.299596   1.000000
   53       -3.210398   1.000000
   54       -2.920055   1.000000
   55       -2.876825   1.000000
   56       -2.829133   1.000000
   57       -2.746946   1.000000
   58       -2.708565   1.000000
   59       -2.655512   1.000000
   60       -2.479343   1.000000
   61       -2.406873   1.000000
   62       -2.378654   1.000000
   63       -2.330602   1.000000
   64       -2.223032   1.000000
   65       -2.176325   1.000000
   66       -2.132967   1.000000
   67       -2.099364   1.000000
   68       -2.060215   1.000000
   69       -1.949762   1.000000
   70       -1.908685   1.000000
   71       -1.836568   1.000000
   72       -1.803419   1.000000
   73       -1.759196   1.000000
   74       -1.620668   1.000000
   75       -1.366824   1.000014
   76       -1.315549   1.000067
   77       -1.201357   1.001220
   78       -1.032153   1.021127
   79       -0.839728   0.952729
   80       -0.765127   0.746786
   81       -0.712290   0.536268
   82       -0.669099   0.355949
   83       -0.602809   0.127437
   84       -0.447500  -0.035006
   85       -0.418876  -0.030855
   86       -0.374770  -0.021014
   87        0.813020  -0.000000
   88        0.864543  -0.000000
   89        1.230238  -0.000000
   90        1.580003  -0.000000
   91        1.934292  -0.000000
   92        2.143518  -0.000000
   93        2.537147  -0.000000
   94        2.893570  -0.000000
   95        3.717201  -0.000000
   96        3.913795  -0.000000
   97        4.161462  -0.000000
   98        5.055291   0.000000
   99        5.496012   0.000000
  100        5.851671   0.000000
  101        5.930993   0.000000
  102        6.141725   0.000000
  103        6.298148   0.000000
  104        6.447206   0.000000
  105        6.540646   0.000000
  106        6.583460   0.000000
  107        6.767717   0.000000
  108        6.949831   0.000000
  109        7.084325   0.000000
  110        7.170144   0.000000
  111        7.259164   0.000000
  112        7.491350   0.000000
 
 -0.3125000E+00  0.6250000E-01  0.0000000E+00  0.6250000E-01
    1       -9.072832   1.000000
    2       -7.881885   1.000000
    3       -7.525099   1.000000
    4       -6.967114   1.000000
    5       -6.816195   1.000000
    6       -6.768064   1.000000
    7       -6.698950   1.000000
    8       -6.587782   1.000000
    9       -6.534777   1.000000
   10       -6.472922   1.000000
   11       -6.444543   1.000000
   12       -6.276250   1.000000
   13       -6.172522   1.000000
   14       -6.104539   1.000000
   15       -6.020106   1.000000
   16       -5.992000   1.000000
   17       -5.820272   1.000000
   18       -5.688498   1.000000
   19       -5.578151   1.000000
   20       -5.480447   1.000000
   21       -5.279119   1.000000
   22       -5.245975   1.000000
   23       -5.175880   1.000000
   24       -4.998285   1.000000
   25       -4.931698   1.000000
   26       -4.815489   1.000000
   27       -4.758397   1.000000
   28       -4.665307   1.000000
   29       -4.537421   1.000000
   30       -4.400704   1.000000
   31       -4.328994   1.000000
   32       -4.225330   1.000000
   33       -4.148972   1.000000
   34       -4.121707   1.000000
   35       -4.107418   1.000000
   36       -4.047072   1.000000
   37       -3.989040   1.000000
   38       -3.918660   1.000000
   39       -3.887671   1.000000
   40       -3.752479   1.000000
   41       -3.678416   1.000000
   42       -3.627736   1.000000
   43       -3.582337   1.000000
   44       -3.533475   1.000000
   45       -3.492206   1.000000
   46       -3.440486   1.000000
   47       -3.331216   1.000000
   48       -3.139062   1.000000
   49       -3.059039   1.000000
   50       -2.995789   1.000000
   51       -2.960547   1.000000
   52       -2.927420   1.000000
   53       -2.907603   1.000000
   54       -2.841191   1.000000
   55       -2.803567   1.000000
   56       -2.762678   1.000000
   57       -2.690924   1.000000
   58       -2.662768   1.000000
   59       -2.622204   1.000000
   60       -2.488274   1.000000
   61       -2.401692   1.000000
   62       -2.123791   1.000000
   63       -2.066134   1.000000
   64       -2.030150   1.000000
   65       -1.982470   1.000000
   66       -1.904081   1.000000
   67       -1.837062   1.000000
   68       -1.808010   1.000000
   69       -1.747034   1.000000
   70       -1.654259   1.000000
   71       -1.596896   1.000000
   72       -1.438836   1.000001
   73       -1.345015   1.000028
   74       -1.281604   1.000171
   75       -1.219547   1.000807
   76       -1.155833   1.003153
   77       -1.044527   1.018370
   78       -1.005448   1.027263
   79       -0.962851   1.034755
   80       -0.770029   0.764244
   81       -0.742818   0.662021
   82       -0.690309   0.443435
   83       -0.666105   0.343955
   84       -0.465841  -0.035255
   85       -0.420928  -0.031252
   86       -0.076516  -0.000043
   87        0.499702  -0.000000
   88        0.773584  -0.000000
   89        1.114742  -0.000000
   90        1.649774  -0.000000
   91        1.895353  -0.000000
   92        2.211902  -0.000000
   93        2.436366  -0.000000
   94        2.488743  -0.000000
   95        3.393054  -0.000000
   96        3.752260  -0.000000
   97        4.469135  -0.000000
   98        4.883768   0.000000
   99        5.126899   0.000000
  100        5.343962   0.000000
  101        5.496070   0.000000
  102        5.796705   0.000000
  103        5.877723   0.000000
  104        6.033223   0.000000
  105        6.129470   0.000000
  106        6.374015   0.000000
  107        6.768484   0.000000
  108        6.953449   0.000000
  109        7.053728   0.000000
  110        7.188361   0.000000
  111        7.463779   0.000000
  112        7.503363   0.000000
 
 -0.1875000E+00  0.6250000E-01  0.0000000E+00  0.6250000E-01
    1       -9.629831   1.000000
    2       -8.393461   1.000000
    3       -7.327354   1.000000
    4       -7.287042   1.000000
    5       -7.193840   1.000000
    6       -7.096757   1.000000
    7       -7.011144   1.000000
    8       -6.936652   1.000000
    9       -6.876544   1.000000
   10       -6.789158   1.000000
   11       -6.568323   1.000000
   12       -6.486826   1.000000
   13       -6.456856   1.000000
   14       -6.429870   1.000000
   15       -6.275752   1.000000
   16       -6.204639   1.000000
   17       -6.110737   1.000000
   18       -6.085494   1.000000
   19       -5.993762   1.000000
   20       -5.795234   1.000000
   21       -5.428849   1.000000
   22       -5.423350   1.000000
   23       -5.298584   1.000000
   24       -4.791949   1.000000
   25       -4.712606   1.000000
   26       -4.631195   1.000000
   27       -4.620614   1.000000
   28       -4.550840   1.000000
   29       -4.445173   1.000000
   30       -4.385168   1.000000
   31       -4.336364   1.000000
   32       -4.259348   1.000000
   33       -3.988475   1.000000
   34       -3.954258   1.000000
   35       -3.913268   1.000000
   36       -3.874384   1.000000
   37       -3.863242   1.000000
   38       -3.820174   1.000000
   39       -3.791579   1.000000
   40       -3.716916   1.000000
   41       -3.653832   1.000000
   42       -3.625559   1.000000
   43       -3.606243   1.000000
   44       -3.503013   1.000000
   45       -3.421229   1.000000
   46       -3.363026   1.000000
   47       -3.311044   1.000000
   48       -3.202350   1.000000
   49       -2.931614   1.000000
   50       -2.722856   1.000000
   51       -2.673862   1.000000
   52       -2.620350   1.000000
   53       -2.444777   1.000000
   54       -2.363445   1.000000
   55       -2.214412   1.000000
   56       -2.171343   1.000000
   57       -2.145723   1.000000
   58       -2.048560   1.000000
   59       -1.976235   1.000000
   60       -1.953295   1.000000
   61       -1.866630   1.000000
   62       -1.820321   1.000000
   63       -1.760797   1.000000
   64       -1.738579   1.000000
   65       -1.698748   1.000000
   66       -1.611024   1.000000
   67       -1.374612   1.000011
   68       -1.270570   1.000229
   69       -1.242091   1.000471
   70       -1.207952   1.001053
   71       -1.159359   1.002943
   72       -1.104879   1.007845
   73       -1.033268   1.020874
   74       -1.014532   1.025189
   75       -0.976526   1.033001
   76       -0.928668   1.033701
   77       -0.864889   0.991540
   78       -0.763466   0.740769
   79       -0.719051   0.564700
   80       -0.669474   0.357459
   81       -0.561750   0.036750
   82       -0.526063  -0.009307
   83       -0.482363  -0.032952
   84       -0.414351  -0.029944
   85       -0.322376  -0.010681
   86       -0.155343  -0.000368
   87        0.527208  -0.000000
   88        0.624950  -0.000000
   89        0.964513  -0.000000
   90        1.181657  -0.000000
   91        1.676837  -0.000000
   92        1.809869  -0.000000
   93        2.296144  -0.000000
   94        2.647488  -0.000000
   95        3.033687  -0.000000
   96        3.564502  -0.000000
   97        3.744523  -0.000000
   98        4.314923  -0.000000
   99        4.788562   0.000000
  100        5.048950   0.000000
  101        5.300612   0.000000
  102        5.373493   0.000000
  103        5.415529   0.000000
  104        5.645271   0.000000
  105        5.742232   0.000000
  106        5.932640   0.000000
  107        6.199054   0.000000
  108        6.483112   0.000000
  109        6.623755   0.000000
  110        6.806890   0.000000
  111        6.930956   0.000000
  112        7.324495   0.000000
 
 -0.6250000E-01  0.6250000E-01  0.0000000E+00  0.3125000E-01
    1       -9.963081   1.000000
    2       -8.716686   1.000000
    3       -7.630483   1.000000
    4       -7.507032   1.000000
    5       -7.293748   1.000000
    6       -7.268800   1.000000
    7       -7.205334   1.000000
    8       -7.117798   1.000000
    9       -7.089939   1.000000
   10       -7.051000   1.000000
   11       -6.712643   1.000000
   12       -6.628377   1.000000
   13       -6.626714   1.000000
   14       -6.480258   1.000000
   15       -6.467844   1.000000
   16       -6.397132   1.000000
   17       -6.352397   1.000000
   18       -6.333247   1.000000
   19       -6.296324   1.000000
   20       -5.893775   1.000000
   21       -5.523656   1.000000
   22       -5.522684   1.000000
   23       -5.379307   1.000000
   24       -4.675845   1.000000
   25       -4.662973   1.000000
   26       -4.602300   1.000000
   27       -4.501500   1.000000
   28       -4.496635   1.000000
   29       -4.481950   1.000000
   30       -4.437083   1.000000
   31       -4.298293   1.000000
   32       -4.258884   1.000000
   33       -4.123821   1.000000
   34       -4.012724   1.000000
   35       -3.988463   1.000000
   36       -3.841498   1.000000
   37       -3.800439   1.000000
   38       -3.788888   1.000000
   39       -3.781230   1.000000
   40       -3.679932   1.000000
   41       -3.660481   1.000000
   42       -3.556031   1.000000
   43       -3.435469   1.000000
   44       -3.382989   1.000000
   45       -3.361019   1.000000
   46       -3.144576   1.000000
   47       -3.005515   1.000000
   48       -2.927086   1.000000
   49       -2.752458   1.000000
   50       -2.675576   1.000000
   51       -2.588166   1.000000
   52       -2.442130   1.000000
   53       -2.252654   1.000000
   54       -2.226861   1.000000
   55       -1.877904   1.000000
   56       -1.832079   1.000000
   57       -1.741410   1.000000
   58       -1.711292   1.000000
   59       -1.647351   1.000000
   60       -1.637674   1.000000
   61       -1.564652   1.000000
   62       -1.557562   1.000000
   63       -1.355604   1.000020
   64       -1.224231   1.000723
   65       -1.187776   1.001641
   66       -1.119728   1.006119
   67       -1.104690   1.007869
   68       -0.948549   1.035458
   69       -0.946337   1.035437
   70       -0.887720   1.014717
   71       -0.861624   0.987330
   72       -0.769150   0.761148
   73       -0.746028   0.674693
   74       -0.726305   0.594934
   75       -0.658771   0.315062
   76       -0.555824   0.027109
   77       -0.518329  -0.015785
   78       -0.504774  -0.024567
   79       -0.429183  -0.032724
   80       -0.427156  -0.032383
   81       -0.383738  -0.023072
   82       -0.331216  -0.012148
   83       -0.261355  -0.003803
   84       -0.244179  -0.002725
   85        0.101807  -0.000000
   86        0.151114  -0.000000
   87        0.263881  -0.000000
   88        0.934864  -0.000000
   89        1.003870  -0.000000
   90        1.018305  -0.000000
   91        1.418812  -0.000000
   92        1.618266  -0.000000
   93        2.101769  -0.000000
   94        2.287966  -0.000000
   95        2.582663  -0.000000
   96        2.807000  -0.000000
   97        3.348666  -0.000000
   98        3.737176  -0.000000
   99        4.507536  -0.000000
  100        4.799339   0.000000
  101        5.144618   0.000000
  102        5.154182   0.000000
  103        5.180036   0.000000