 vasp.5.4.4.18Apr17-6-g9f103f2a35 (build Apr 28 2017 10:53:45) complex          
  
 executed on             LinuxIFC date 2020.02.17  09:19:46
 running on   24 total cores
 distrk:  each k-point on   24 cores,    1 groups
 distr:  one band on NCORES_PER_BAND=   1 cores,   24 groups


--------------------------------------------------------------------------------------------------------


 INCAR:
 POTCAR:    PAW_PBE Au 04Oct2007                  
 POTCAR:    PAW_PBE Pt 04Feb2005                  
 POTCAR:    PAW_PBE Ir 06Sep2000                  
 POTCAR:    PAW_PBE H 15Jun2001                   

 ----------------------------------------------------------------------------- 
|                                                                             |
|           W    W    AA    RRRRR   N    N  II  N    N   GGGG   !!!           |
|           W    W   A  A   R    R  NN   N  II  NN   N  G    G  !!!           |
|           W    W  A    A  R    R  N N  N  II  N N  N  G       !!!           |
|           W WW W  AAAAAA  RRRRR   N  N N  II  N  N N  G  GGG   !            |
|           WW  WW  A    A  R   R   N   NN  II  N   NN  G    G                |
|           W    W  A    A  R    R  N    N  II  N    N   GGGG   !!!           |
|                                                                             |
|      For optimal performance we recommend to set                            |
|        NCORE= 4 - approx SQRT( number of cores)                             |
|      NCORE specifies how many cores store one orbital (NPAR=cpu/NCORE).     |
|      This setting can  greatly improve the performance of VASP for DFT.     |
|      The default,   NCORE=1            might be grossly inefficient         |
|      on modern multi-core architectures or massively parallel machines.     |
|      Do your own testing !!!!                                               |
|      Unfortunately you need to use the default for GW and RPA calculations. |
|      (for HF NCORE is supported but not extensively tested yet)             |
|                                                                             |
 ----------------------------------------------------------------------------- 

 POTCAR:    PAW_PBE Au 04Oct2007                  
   SHA256 =  d0044ae04e2bdce24051b198fc5c053d722a5bc6fe3c3b100514a13fc5d2db88 Au
   COPYR  = (c) Copyright 04Oct2007 Georg Kresse                                
   COPYR  = This file is part of the software VASP. Any use, copying, and all ot
   COPYR  = If you do not have a valid VASP license, you may not use, copy or di
   VRHFIN =Au: s1d10                                                            
   LEXCH  = PE                                                                  
   EATOM  =   926.0867 eV,   68.0654 Ry                                         
                                                                                
   TITEL  = PAW_PBE Au 04Oct2007                                                
   LULTRA =        F    use ultrasoft PP ?                                      
   IUNSCR =        1    unscreen: 0-lin 1-nonlin 2-no                           
   RPACOR =    2.330    partial core radius                                     
   POMASS =  196.966; ZVAL   =   11.000    mass and valenz                      
   RCORE  =    2.500    outmost cutoff radius                                   
   RWIGS  =    2.840; RWIGS  =    1.503    wigner-seitz radius (au A)           
   ENMAX  =  229.943; ENMIN  =  172.457 eV                                      
   ICORE  =        3    local potential                                         
   LCOR   =        T    correct aug charges                                     
   LPAW   =        T    paw PP                                                  
   EAUG   =  356.670                                                            
   DEXC   =    0.000                                                            
   RMAX   =    2.562    core radius for proj-oper                               
   RAUG   =    1.300    factor for augmentation sphere                          
   RDEP   =    2.598    radius for radial grids                                 
   RDEPT  =    2.193    core radius for aug-charge                              
                                                                                
   Atomic configuration                                                         
   16 entries                                                                   
     n  l   j            E        occ.                                          
     1  0  0.50    -80748.5001   2.0000                                         
     2  0  0.50    -14244.7466   2.0000                                         
     2  1  1.50    -12310.9591   6.0000                                         
     3  0  0.50     -3362.1768   2.0000                                         
     3  1  1.50     -2801.5463   6.0000                                         
     3  2  2.50     -2203.8206  10.0000                                         
     4  0  0.50      -729.8168   2.0000                                         
     4  1  1.50      -546.0527   6.0000                                         
     4  2  2.50      -325.7302  10.0000                                         
     4  3  3.50       -81.1472  14.0000                                         
     5  0  0.50      -108.3201   2.0000                                         
     5  1  1.50       -59.7479   6.0000                                         
     5  2  2.50        -6.8783  10.0000                                         
     6  0  0.50        -5.7602   1.0000                                         
     6  1  1.50        -6.8029   0.0000                                         
     5  3  2.50        -1.3606   0.0000                                         
   Description                                                                  
     l       E           TYP  RCUT    TYP  RCUT                                 
     2     -6.8782861     23  2.500                                             
     2     -8.2388687     23  2.500                                             
     0     -5.7601759     23  2.500                                             
     0     -0.8493231     23  2.500                                             
     1     -2.7211652     23  2.500                                             
     1     27.2116520     23  2.500                                             
     3     -1.3605826     23  2.500                                             
  local pseudopotential read in
  partial core-charges read in
  partial kinetic energy density read in
  atomic valenz-charges read in
  non local Contribution for L=           2  read in
    real space projection operators read in
  non local Contribution for L=           2  read in
    real space projection operators read in
  non local Contribution for L=           0  read in
    real space projection operators read in
  non local Contribution for L=           0  read in
    real space projection operators read in
  non local Contribution for L=           1  read in
    real space projection operators read in
  non local Contribution for L=           1  read in
    real space projection operators read in
    PAW grid and wavefunctions read in
 
   number of l-projection  operators is LMAX  =           6
   number of lm-projection operators is LMMAX =          18
 
 POTCAR:    PAW_PBE Pt 04Feb2005                  
   SHA256 =  3ed90460adef76debcff1cfb73ee1349b515b1a3db03439735b44de3a8db7dc8 Pt
   COPYR  = (c) Copyright 04Feb2005 Georg Kresse                                
   COPYR  = This file is part of the software VASP. Any use, copying, and all ot
   COPYR  = If you do not have a valid VASP license, you may not use, copy or di
   VRHFIN =Pt: s1d9                                                             
   LEXCH  = PE                                                                  
   EATOM  =   729.1176 eV,   53.5886 Ry                                         
                                                                                
   TITEL  = PAW_PBE Pt 04Feb2005                                                
   LULTRA =        F    use ultrasoft PP ?                                      
   IUNSCR =        1    unscreen: 0-lin 1-nonlin 2-no                           
   RPACOR =    2.330    partial core radius                                     
   POMASS =  195.080; ZVAL   =   10.000    mass and valenz                      
   RCORE  =    2.600    outmost cutoff radius                                   
   RWIGS  =    2.750; RWIGS  =    1.455    wigner-seitz radius (au A)           
   ENMAX  =  230.283; ENMIN  =  172.712 eV                                      
   ICORE  =        3    local potential                                         
   LCOR   =        T    correct aug charges                                     
   LPAW   =        T    paw PP                                                  
   EAUG   =  358.966                                                            
   DEXC   =    0.000                                                            
   RMAX   =    2.658    core radius for proj-oper                               
   RAUG   =    1.300    factor for augmentation sphere                          
   RDEP   =    2.761    radius for radial grids                                 
   RDEPT  =    2.203    core radius for aug-charge                              
                                                                                
   Atomic configuration                                                         
   16 entries                                                                   
     n  l   j            E        occ.                                          
     1  0  0.50    -78401.1885   2.0000                                         
     2  0  0.50    -13770.7750   2.0000                                         
     2  1  1.50    -11931.0468   6.0000                                         
     3  0  0.50     -3234.7234   2.0000                                         
     3  1  1.50     -2699.2216   6.0000                                         
     3  2  2.50     -2119.5714  10.0000                                         
     4  0  0.50      -695.1528   2.0000                                         
     4  1  1.50      -519.6034   6.0000                                         
     4  2  2.50      -306.6786  10.0000                                         
     4  3  3.50       -70.1041  14.0000                                         
     5  0  0.50      -101.7747   2.0000                                         
     5  1  1.50       -55.9873   6.0000                                         
     5  2  2.50        -6.1423   9.0000                                         
     6  0  0.50        -5.6573   1.0000                                         
     6  1  1.50        -6.8029   0.0000                                         
     5  3  2.50        -1.3606   0.0000                                         
   Description                                                                  
     l       E           TYP  RCUT    TYP  RCUT                                 
     2     -6.1423404     23  2.500                                             
     2     -7.5029230     23  2.500                                             
     0     -5.6573207     23  2.500                                             
     0      0.7416693     23  2.500                                             
     1     -2.7211652     23  2.600                                             
     1     20.4087390     23  2.600                                             
     3     -1.3605826     23  2.500                                             
  local pseudopotential read in
  partial core-charges read in
  partial kinetic energy density read in
  atomic valenz-charges read in
  non local Contribution for L=           2  read in
    real space projection operators read in
  non local Contribution for L=           2  read in
    real space projection operators read in
  non local Contribution for L=           0  read in
    real space projection operators read in
  non local Contribution for L=           0  read in
    real space projection operators read in
  non local Contribution for L=           1  read in
    real space projection operators read in
  non local Contribution for L=           1  read in
    real space projection operators read in
    PAW grid and wavefunctions read in
 
   number of l-projection  operators is LMAX  =           6
   number of lm-projection operators is LMMAX =          18
 
 POTCAR:    PAW_PBE Ir 06Sep2000                  
   SHA256 =  7c6af8d4d487b237782eb51e6f62977b27a1da78c3c96acd1cebefd6c308f120 Ir
   COPYR  = (c) Copyright 06Sep2000 Georg Kresse                                
   COPYR  = This file is part of the software VASP. Any use, copying, and all ot
   COPYR  = If you do not have a valid VASP license, you may not use, copy or di
   VRHFIN =Ir: s1d8                                                             
   LEXCH  = PE                                                                  
   EATOM  =   560.1833 eV,   41.1723 Ry                                         
                                                                                
   TITEL  = PAW_PBE Ir 06Sep2000                                                
   LULTRA =        F    use ultrasoft PP ?                                      
   IUNSCR =        1    unscreen: 0-lin 1-nonlin 2-no                           
   RPACOR =    2.250    partial core radius                                     
   POMASS =  192.220; ZVAL   =    9.000    mass and valenz                      
   RCORE  =    2.600    outmost cutoff radius                                   
   RWIGS  =    2.690; RWIGS  =    1.423    wigner-seitz radius (au A)           
   ENMAX  =  210.864; ENMIN  =  158.148 eV                                      
   RCLOC  =    1.857    cutoff for local pot                                    
   LCOR   =        T    correct aug charges                                     
   LPAW   =        T    paw PP                                                  
   EAUG   =  318.962                                                            
   DEXC   =    0.000                                                            
   RMAX   =    2.667    core radius for proj-oper                               
   RAUG   =    1.300    factor for augmentation sphere                          
   RDEP   =    2.748    radius for radial grids                                 
   RDEPT  =    2.300    core radius for aug-charge                              
                                                                                
   Atomic configuration                                                         
   16 entries                                                                   
     n  l   j            E        occ.                                          
     1  0  0.50    -76100.0449   2.0000                                         
     2  0  0.50    -13308.1683   2.0000                                         
     2  1  1.50    -11558.0021   6.0000                                         
     3  0  0.50     -3110.7274   2.0000                                         
     3  1  1.50     -2599.2109   6.0000                                         
     3  2  2.50     -2037.1515  10.0000                                         
     4  0  0.50      -661.6001   2.0000                                         
     4  1  1.50      -493.8981   6.0000                                         
     4  2  2.50      -288.1909  10.0000                                         
     4  3  3.50       -59.5718  14.0000                                         
     5  0  0.50       -95.3879   2.0000                                         
     5  1  1.50       -52.2747   6.0000                                         
     5  2  2.50        -5.4180   8.0000                                         
     6  0  0.50        -5.5479   1.0000                                         
     6  1  1.50        -6.8029   0.0000                                         
     5  3  2.50        -1.3606   0.0000                                         
   Description                                                                  
     l       E           TYP  RCUT    TYP  RCUT                                 
     2     -5.4179967     23  2.600                                             
     2     -6.7785793     23  2.600                                             
     0     -5.5478636     23  2.600                                             
     0      2.2542272     23  2.600                                             
     1     -2.7211652     23  2.600                                             
     1     20.4087390     23  2.600                                             
  local pseudopotential read in
  partial core-charges read in
  partial kinetic energy density read in
  atomic valenz-charges read in
  non local Contribution for L=           2  read in
    real space projection operators read in
  non local Contribution for L=           2  read in
    real space projection operators read in
  non local Contribution for L=           0  read in
    real space projection operators read in
  non local Contribution for L=           0  read in
    real space projection operators read in
  non local Contribution for L=           1  read in
    real space projection operators read in
  non local Contribution for L=           1  read in
    real space projection operators read in
    PAW grid and wavefunctions read in
 
   number of l-projection  operators is LMAX  =           6
   number of lm-projection operators is LMMAX =          18
 
 POTCAR:    PAW_PBE H 15Jun2001                   
   SHA256 =  030f79b5d3ab3cf0e668861823c8fb652ff669f3e15e46930bd03bfd63a607b6 H/
   COPYR  = (c) Copyright 15Jun2001 Georg Kresse                                
   COPYR  = This file is part of the software VASP. Any use, copying, and all ot
   COPYR  = If you do not have a valid VASP license, you may not use, copy or di
   VRHFIN =H: ultrasoft test                                                    
   LEXCH  = PE                                                                  
   EATOM  =    12.4884 eV,    0.9179 Ry                                         
                                                                                
   TITEL  = PAW_PBE H 15Jun2001                                                 
   LULTRA =        F    use ultrasoft PP ?                                      
   IUNSCR =        0    unscreen: 0-lin 1-nonlin 2-no                           
   RPACOR =    0.000    partial core radius                                     
   POMASS =    1.000; ZVAL   =    1.000    mass and valenz                      
   RCORE  =    1.100    outmost cutoff radius                                   
   RWIGS  =    0.700; RWIGS  =    0.370    wigner-seitz radius (au A)           
   ENMAX  =  250.000; ENMIN  =  200.000 eV                                      
   RCLOC  =    0.701    cutoff for local pot                                    
   LCOR   =        T    correct aug charges                                     
   LPAW   =        T    paw PP                                                  
   EAUG   =  400.000                                                            
   RMAX   =    1.123    core radius for proj-oper                               
   RAUG   =    1.200    factor for augmentation sphere                          
   RDEP   =    1.112    radius for radial grids                                 
   RDEPT  =    0.926    core radius for aug-charge                              
                                                                                
   Atomic configuration                                                         
    2 entries                                                                   
     n  l   j            E        occ.                                          
     1  0  0.50        -6.4927   1.0000                                         
     2  1  0.50        -3.4015   0.0000                                         
   Description                                                                  
     l       E           TYP  RCUT    TYP  RCUT                                 
     0     -6.4927494     23  1.100                                             
     0      6.8029130     23  1.100                                             
     1     -4.0817478     23  1.100                                             
  local pseudopotential read in
  atomic valenz-charges read in
  non local Contribution for L=           0  read in
    real space projection operators read in
  non local Contribution for L=           0  read in
    real space projection operators read in
  non local Contribution for L=           1  read in
    real space projection operators read in
    PAW grid and wavefunctions read in
 
   number of l-projection  operators is LMAX  =           3
   number of lm-projection operators is LMMAX =           5
 

 ----------------------------------------------------------------------------- 
|                                                                             |
|  ADVICE TO THIS USER RUNNING 'VASP/VAMP'   (HEAR YOUR MASTER'S VOICE ...):  |
|                                                                             |
|      You have a (more or less) 'large supercell' and for larger cells       |
|      it might be more efficient to use real space projection opertators     |
|      So try LREAL= Auto  in the INCAR   file.                               |
|      Mind:          For very  accurate calculation you might also keep the  |
|      reciprocal projection scheme          (i.e. LREAL=.FALSE.)             |
|                                                                             |
 ----------------------------------------------------------------------------- 

  PAW_PBE Au 04Oct2007                  :
 energy of atom  1       EATOM= -926.0867
 kinetic energy error for atom=    0.0152 (will be added to EATOM!!)
  PAW_PBE Pt 04Feb2005                  :
 energy of atom  2       EATOM= -729.1176
 kinetic energy error for atom=    0.0144 (will be added to EATOM!!)
  PAW_PBE Ir 06Sep2000                  :
 energy of atom  3       EATOM= -560.1833
 kinetic energy error for atom=    0.0056 (will be added to EATOM!!)
  PAW_PBE H 15Jun2001                   :
 energy of atom  4       EATOM=  -12.4884
 kinetic energy error for atom=    0.0203 (will be added to EATOM!!)
 
 
 POSCAR: Au Pt Ir  H                             
  positions in cartesian coordinates
  No initial velocities read in
 exchange correlation table for  LEXCH =        8
   RHO(1)=    0.500       N(1)  =     2000
   RHO(2)=  100.500       N(2)  =     4000
 


--------------------------------------------------------------------------------------------------------


 ion  position               nearest neighbor table
   1  0.000  0.000  0.390-   3 2.78   3 2.78   4 2.78   4 2.78   2 2.78   2 2.78   5 2.84   7 2.84
                             6 2.84
   2  0.500  0.000  0.390-   4 2.78   3 2.78   4 2.78   3 2.78   1 2.78   1 2.78   8 2.81   6 2.84
                             5 2.84
   3  0.000  0.500  0.390-   1 2.78   1 2.78   2 2.78   2 2.78   4 2.78   4 2.78   8 2.81   7 2.84
                             5 2.84
   4  0.500  0.500  0.390-   2 2.78   1 2.78   2 2.78   1 2.78   3 2.78   3 2.78   8 2.81   7 2.84
                             6 2.84
   5  0.167  0.167  0.465-   7 2.78   6 2.78   8 2.78   8 2.78   7 2.78   6 2.78  12 2.80   9 2.80
                            10 2.80   1 2.84   3 2.84   2 2.84
   6  0.667  0.167  0.465-   7 2.78   5 2.78   8 2.78   8 2.78   7 2.78   5 2.78  11 2.80   9 2.80
                            10 2.80   1 2.84   2 2.84   4 2.84
   7  0.167  0.667  0.465-   5 2.78   6 2.78   8 2.78   8 2.78   6 2.78   5 2.78  11 2.80  12 2.80
                            10 2.80   1 2.84   3 2.84   4 2.84
   8  0.667  0.667  0.464-   6 2.78   7 2.78   5 2.78   5 2.78   6 2.78   7 2.78   4 2.81   3 2.81
                             2 2.81   9 2.84  12 2.84  11 2.84
   9  0.834  0.332  0.540-  11 2.77  12 2.77  10 2.78  10 2.78  12 2.79  11 2.79   5 2.80   6 2.80
                            14 2.81  15 2.81   8 2.84  16 2.91
  10  0.333  0.333  0.540-  11 2.78  11 2.78  12 2.78  12 2.78   9 2.78   9 2.78   6 2.80   7 2.80
                             5 2.80  13 2.82  14 2.82  15 2.82
  11  0.834  0.834  0.540-   9 2.77  12 2.77  10 2.78  10 2.78   9 2.79  12 2.79   6 2.80   7 2.80
                            13 2.81  14 2.81   8 2.84  16 2.91
  12  0.332  0.834  0.540-   9 2.77  11 2.77  10 2.78  10 2.78   9 2.79  11 2.79   5 2.80   7 2.80
                            15 2.81  13 2.81   8 2.84  16 2.91
  13  0.500  0.999  0.615-  14 2.77  15 2.77  16 2.78  16 2.78  14 2.79  15 2.79  12 2.81  11 2.81
                            10 2.82
  14  0.999  0.500  0.615-  13 2.77  15 2.77  16 2.78  16 2.78  13 2.79  15 2.79   9 2.81  11 2.81
                            10 2.82
  15  0.500  0.500  0.615-  13 2.77  14 2.77  16 2.78  16 2.78  13 2.79  14 2.79   9 2.81  12 2.81
                            10 2.82
  16  0.000  0.000  0.619-  17 1.56  14 2.78  13 2.78  15 2.78  15 2.78  13 2.78  14 2.78  11 2.91
                            12 2.91   9 2.91
  17  0.000  0.000  0.670-  16 1.56
 
  LATTYP: Found a hexagonal cell.
 ALAT       =     5.5578593001
 C/A-ratio  =     5.5429542221
  
  Lattice vectors:
  
 A1 = (   2.7789296501,  -4.8132473446,   0.0000000000)
 A2 = (  -5.5578593001,   0.0000000000,   0.0000000000)
 A3 = (   0.0000000000,   0.0000000000, -30.8069596737)


Analysis of symmetry for initial positions (statically):
=====================================================================
 Subroutine PRICEL returns:
 Original cell was already a primitive cell.
 

 Routine SETGRP: Setting up the symmetry group for a 
 hexagonal supercell.


 Subroutine GETGRP returns: Found  6 space group operations
 (whereof  6 operations were pure point group operations)
 out of a pool of 24 trial point group operations.


The static configuration has the point symmetry C_3v.


Analysis of symmetry for dynamics (positions and initial velocities):
=====================================================================
 Subroutine PRICEL returns:
 Original cell was already a primitive cell.
 

 Routine SETGRP: Setting up the symmetry group for a 
 hexagonal supercell.


 Subroutine GETGRP returns: Found  6 space group operations
 (whereof  6 operations were pure point group operations)
 out of a pool of 24 trial point group operations.


The dynamic configuration has the point symmetry C_3v.


Analysis of constrained symmetry for selective dynamics:
=====================================================================
 Subroutine PRICEL returns:
 Original cell was already a primitive cell.
 

 Routine SETGRP: Setting up the symmetry group for a 
 hexagonal supercell.


 Subroutine GETGRP returns: Found  6 space group operations
 (whereof  6 operations were pure point group operations)
 out of a pool of 24 trial point group operations.


The constrained configuration has the point symmetry C_3v.


 Subroutine INISYM returns: Found  6 space group operations
 (whereof  6 operations are pure point group operations),
 and found     1 'primitive' translations

 
 
 KPOINTS: KPOINTS created by Atomic Simulation Env

Automatic generation of k-mesh.
Space group operators:
 irot       det(A)        alpha          n_x          n_y          n_z        tau_x        tau_y        tau_z
    1     1.000000     0.000001     1.000000     0.000000     0.000000     0.000000     0.000000     0.000000
    2     1.000000   120.000000     0.000000     0.000000     1.000000     0.000000     0.000000     0.000000
    3     1.000000   120.000000     0.000000     0.000000    -1.000000     0.000000     0.000000     0.000000
    4    -1.000000   180.000000     0.500000    -0.866025     0.000000     0.000000     0.000000     0.000000
    5    -1.000000   180.000000     1.000000     0.000000     0.000000     0.000000     0.000000     0.000000
    6    -1.000000   180.000000    -0.500000    -0.866025     0.000000     0.000000     0.000000     0.000000
 
 Subroutine IBZKPT returns following result:
 ===========================================
 
 Found     20 irreducible k-points:
 
 Following reciprocal coordinates:
            Coordinates               Weight
  0.062500  0.062500  0.000000     48.000000
  0.187500  0.062500  0.000000     96.000000
  0.312500  0.062500  0.000000     96.000000
  0.437500  0.062500  0.000000     96.000000
 -0.437500  0.062500  0.000000     96.000000
 -0.312500  0.062500  0.000000     96.000000
 -0.187500  0.062500  0.000000     96.000000
 -0.062500  0.062500  0.000000     48.000000
  0.187500  0.187500  0.000000     48.000000
  0.312500  0.187500  0.000000     96.000000
  0.437500  0.187500  0.000000     96.000000
 -0.437500  0.187500  0.000000     96.000000
 -0.312500  0.187500  0.000000     96.000000
 -0.187500  0.187500  0.000000     48.000000
  0.312500  0.312500  0.000000     48.000000
  0.437500  0.312500  0.000000     96.000000
 -0.437500  0.312500  0.000000     96.000000
 -0.312500  0.312500  0.000000     48.000000
  0.437500  0.437500  0.000000     48.000000
 -0.437500  0.437500  0.000000     48.000000
 
 Following cartesian coordinates:
            Coordinates               Weight
  0.011245  0.006492  0.000000     48.000000
  0.033736 -0.006492  0.000000     96.000000
  0.056227 -0.019477  0.000000     96.000000
  0.078717 -0.032462  0.000000     96.000000
 -0.078717  0.058432  0.000000     96.000000
 -0.056227  0.045447  0.000000     96.000000
 -0.033736  0.032462  0.000000     96.000000
 -0.011245  0.019477  0.000000     48.000000
  0.033736  0.019477  0.000000     48.000000
  0.056227  0.006492  0.000000     96.000000
  0.078717 -0.006492  0.000000     96.000000
 -0.078717  0.084402  0.000000     96.000000
 -0.056227  0.071417  0.000000     96.000000
 -0.033736  0.058432  0.000000     48.000000
  0.056227  0.032462  0.000000     48.000000
  0.078717  0.019477  0.000000     96.000000
 -0.078717  0.110372  0.000000     96.000000
 -0.056227  0.097387  0.000000     48.000000
  0.078717  0.045447  0.000000     48.000000
 -0.078717  0.136342  0.000000     48.000000
 


--------------------------------------------------------------------------------------------------------




 Dimension of arrays:
   k-points           NKPTS =     20   k-points in BZ     NKDIM =     20   number of bands    NBANDS=     96
   number of dos      NEDOS =    301   number of ions     NIONS =     17
   non local maximal  LDIM  =      6   non local SUM 2l+1 LMDIM =     18
   total plane-waves  NPLWV = 112896
   max r-space proj   IRMAX =      1   max aug-charges    IRDMAX=  10104
   dimension x,y,z NGX =    28 NGY =   28 NGZ =  144
   dimension x,y,z NGXF=    56 NGYF=   56 NGZF=  288
   support grid    NGXF=    56 NGYF=   56 NGZF=  288
   ions per type =               1  14   1   1
   NGX,Y,Z   is equivalent  to a cutoff of   8.38,  8.38,  7.77 a.u.
   NGXF,Y,Z  is equivalent  to a cutoff of  16.75, 16.75, 15.54 a.u.

 SYSTEM =  unknown system                          
 POSCAR =  Au Pt Ir  H                             

 Startparameter for this run:
   NWRITE =      2    write-flag & timer
   PREC   = normal    normal or accurate (medium, high low for compatibility)
   ISTART =      0    job   : 0-new  1-cont  2-samecut
   ICHARG =      2    charge: 1-file 2-atom 10-const
   ISPIN  =      1    spin polarized calculation?
   LNONCOLLINEAR =      F non collinear calculations
   LSORBIT =      F    spin-orbit coupling
   INIWAV =      1    electr: 0-lowe 1-rand  2-diag
   LASPH  =      F    aspherical Exc in radial PAW
   METAGGA=      F    non-selfconsistent MetaGGA calc.

 Electronic Relaxation 1
   ENCUT  =  350.0 eV  25.72 Ry    5.07 a.u.   8.48  8.48 46.99*2*pi/ulx,y,z
   ENINI  =  350.0     initial cutoff
   ENAUG  =  400.0 eV  augmentation charge cutoff
   NELM   =     60;   NELMIN=  2; NELMDL= -5     # of ELM steps 
   EDIFF  = 0.1E-04   stopping-criterion for ELM
   LREAL  =      F    real-space projection
   NLSPLINE    = F    spline interpolate recip. space projectors
   LCOMPAT=      F    compatible to vasp.4.4
   GGA_COMPAT  = T    GGA compatible to vasp.4.4-vasp.4.6
   LMAXPAW     = -100 max onsite density
   LMAXMIX     =    2 max onsite mixed and CHGCAR
   VOSKOWN=      0    Vosko Wilk Nusair interpolation
   ROPT   =    0.00000   0.00000   0.00000   0.00000
 Ionic relaxation
   EDIFFG = -.5E-01   stopping-criterion for IOM
   NSW    =      0    number of steps for IOM
   NBLOCK =      1;   KBLOCK =      1    inner block; outer block 
   IBRION =     -1    ionic relax: 0-MD 1-quasi-New 2-CG
   NFREE  =      1    steps in history (QN), initial steepest desc. (CG)
   ISIF   =      2    stress and relaxation
   IWAVPR =     10    prediction:  0-non 1-charg 2-wave 3-comb
   ISYM   =      2    0-nonsym 1-usesym 2-fastsym
   LCORR  =      T    Harris-Foulkes like correction to forces

   POTIM  = 0.5000    time-step for ionic-motion
   TEIN   =    0.0    initial temperature
   TEBEG  =    0.0;   TEEND  =   0.0 temperature during run
   SMASS  =  -3.00    Nose mass-parameter (am)
   estimated Nose-frequenzy (Omega)   =  0.10E-29 period in steps =****** mass=  -0.706E-27a.u.
   SCALEE = 1.0000    scale energy and forces
   NPACO  =    256;   APACO  = 16.0  distance and # of slots for P.C.
   PSTRESS=    0.0 pullay stress

  Mass of Ions in am
   POMASS = 196.97195.08192.22  1.00
  Ionic Valenz
   ZVAL   =  11.00 10.00  9.00  1.00
  Atomic Wigner-Seitz radii
   RWIGS  =  -1.00 -1.00 -1.00 -1.00
  virtual crystal weights 
   VCA    =   1.00  1.00  1.00  1.00
   NELECT =     161.0000    total number of electrons
   NUPDOWN=      -1.0000    fix difference up-down

 DOS related values:
   EMIN   =  10.00;   EMAX   =-10.00  energy-range for DOS
   EFERMI =   0.00
   ISMEAR =     1;   SIGMA  =   0.20  broadening in eV -4-tet -1-fermi 0-gaus

 Electronic relaxation 2 (details)
   IALGO  =     38    algorithm
   LDIAG  =      T    sub-space diagonalisation (order eigenvalues)
   LSUBROT=      F    optimize rotation matrix (better conditioning)
   TURBO    =      0    0=normal 1=particle mesh
   IRESTART =      0    0=no restart 2=restart with 2 vectors
   NREBOOT  =      0    no. of reboots
   NMIN     =      0    reboot dimension
   EREF     =   0.00    reference energy to select bands
   IMIX   =      4    mixing-type and parameters
     AMIX     =   0.40;   BMIX     =  1.00
     AMIX_MAG =   1.60;   BMIX_MAG =  1.00
     AMIN     =   0.10
     WC   =   100.;   INIMIX=   1;  MIXPRE=   1;  MAXMIX= -45

 Intra band minimization:
   WEIMIN = 0.0000     energy-eigenvalue tresh-hold
   EBREAK =  0.26E-07  absolut break condition
   DEPER  =   0.30     relativ break condition  

   TIME   =   0.40     timestep for ELM

  volume/ion in A,a.u.               =      48.48       327.15
  Fermi-wavevector in a.u.,A,eV,Ry     =   0.949916  1.795081 12.277090  0.902341
  Thomas-Fermi vector in A             =   2.078244
 
 Write flags
   LWAVE        =      F    write WAVECAR
   LDOWNSAMPLE  =      F    k-point downsampling of WAVECAR
   LCHARG       =      F    write CHGCAR
   LVTOT        =      F    write LOCPOT, total local potential
   LVHAR        =      F    write LOCPOT, Hartree potential only
   LELF         =      F    write electronic localiz. function (ELF)
   LORBIT       =      0    0 simple, 1 ext, 2 COOP (PROOUT), +10 PAW based schemes


 Dipole corrections
   LMONO  =      F    monopole corrections only (constant potential shift)
   LDIPOL =      F    correct potential (dipole corrections)
   IDIPOL =      3    1-x, 2-y, 3-z, 4-all directions 
   EPSILON=  1.0000000 bulk dielectric constant

 Exchange correlation treatment:
   GGA     =    PE    GGA type
   LEXCH   =     8    internal setting for exchange type
   VOSKOWN=      0    Vosko Wilk Nusair interpolation
   LHFCALC =     F    Hartree Fock is set to
   LHFONE  =     F    Hartree Fock one center treatment
   AEXX    =    0.0000 exact exchange contribution

 Linear response parameters
   LEPSILON=     F    determine dielectric tensor
   LRPA    =     F    only Hartree local field effects (RPA)
   LNABLA  =     F    use nabla operator in PAW spheres
   LVEL    =     F    velocity operator in full k-point grid
   LINTERFAST=   F  fast interpolation
   KINTER  =     0    interpolate to denser k-point grid
   CSHIFT  =0.1000    complex shift for real part using Kramers Kronig
   OMEGAMAX=  -1.0    maximum frequency
   DEG_THRESHOLD= 0.2000000E-02 threshold for treating states as degnerate
   RTIME   =   -0.100 relaxation time in fs
  (WPLASMAI=    0.000 imaginary part of plasma frequency in eV, 0.658/RTIME)
   DFIELD  = 0.0000000 0.0000000 0.0000000 field for delta impulse in time
 
 Orbital magnetization related:
   ORBITALMAG=     F  switch on orbital magnetization
   LCHIMAG   =     F  perturbation theory with respect to B field
   DQ        =  0.001000  dq finite difference perturbation B field
   LLRAUG    =     F  two centre corrections for induced B field



--------------------------------------------------------------------------------------------------------


 Static calculation
 charge density and potential will be updated during run
 non-spin polarized calculation
 Variant of blocked Davidson
 Davidson routine will perform the subspace rotation
 perform sub-space diagonalisation
    after iterative eigenvector-optimisation
 modified Broyden-mixing scheme, WC =      100.0
 initial mixing is a Kerker type mixing with AMIX =  0.4000 and BMIX =      1.0000
 Hartree-type preconditioning will be used
 using additional bands           15
 reciprocal scheme for non local part
 use partial core corrections
 calculate Harris-corrections to forces 
   (improved forces if not selfconsistent)
 use gradient corrections 
 use of overlap-Matrix (Vanderbilt PP)
 Methfessel and Paxton  Order N= 1 SIGMA  =   0.20


--------------------------------------------------------------------------------------------------------


  energy-cutoff  :      350.00
  volume of cell :      824.13
      direct lattice vectors                 reciprocal lattice vectors
     5.557859300  0.000000000  0.000000000     0.179925390 -0.103879972  0.000000000
     2.778929650  4.813247345  0.000000000     0.000000000  0.207759944  0.000000000
     0.000000000  0.000000000 30.806959674     0.000000000  0.000000000  0.032460198

  length of vectors
     5.557859300  5.557859300 30.806959674     0.207759944  0.207759944  0.032460198


 
 k-points in units of 2pi/SCALE and weight: KPOINTS created by Atomic Simulation Env
   0.01124534  0.00649250  0.00000000       0.031
   0.03373601 -0.00649250  0.00000000       0.062
   0.05622668 -0.01947749  0.00000000       0.062
   0.07871736 -0.03246249  0.00000000       0.062
  -0.07871736  0.05843248  0.00000000       0.062
  -0.05622668  0.04544749  0.00000000       0.062
  -0.03373601  0.03246249  0.00000000       0.062
  -0.01124534  0.01947749  0.00000000       0.031
   0.03373601  0.01947749  0.00000000       0.031
   0.05622668  0.00649250  0.00000000       0.062
   0.07871736 -0.00649250  0.00000000       0.062
  -0.07871736  0.08440248  0.00000000       0.062
  -0.05622668  0.07141748  0.00000000       0.062
  -0.03373601  0.05843248  0.00000000       0.031
   0.05622668  0.03246249  0.00000000       0.031
   0.07871736  0.01947749  0.00000000       0.062
  -0.07871736  0.11037247  0.00000000       0.062
  -0.05622668  0.09738747  0.00000000       0.031
   0.07871736  0.04544749  0.00000000       0.031
  -0.07871736  0.13634246  0.00000000       0.031
 
 k-points in reciprocal lattice and weights: KPOINTS created by Atomic Simulation Env
   0.06250000  0.06250000  0.00000000       0.031
   0.18750000  0.06250000  0.00000000       0.062
   0.31250000  0.06250000  0.00000000       0.062
   0.43750000  0.06250000  0.00000000       0.062
  -0.43750000  0.06250000  0.00000000       0.062
  -0.31250000  0.06250000  0.00000000       0.062
  -0.18750000  0.06250000  0.00000000       0.062
  -0.06250000  0.06250000  0.00000000       0.031
   0.18750000  0.18750000  0.00000000       0.031
   0.31250000  0.18750000  0.00000000       0.062
   0.43750000  0.18750000  0.00000000       0.062
  -0.43750000  0.18750000  0.00000000       0.062
  -0.31250000  0.18750000  0.00000000       0.062
  -0.18750000  0.18750000  0.00000000       0.031
   0.31250000  0.31250000  0.00000000       0.031
   0.43750000  0.31250000  0.00000000       0.062
  -0.43750000  0.31250000  0.00000000       0.062
  -0.31250000  0.31250000  0.00000000       0.031
   0.43750000  0.43750000  0.00000000       0.031
  -0.43750000  0.43750000  0.00000000       0.031
 
 position of ions in fractional coordinates (direct lattice) 
   0.00000000  0.00000000  0.38952237
   0.50000000  0.00000000  0.38952237
   0.00000000  0.50000000  0.38952237
   0.50000000  0.50000000  0.38952237
   0.16652883  0.16652883  0.46542487
   0.66694234  0.16652883  0.46542487
   0.16652883  0.66694234  0.46542487
   0.66666667  0.66666667  0.46426737
   0.83396869  0.33206261  0.54005199
   0.33333333  0.33333333  0.53994492
   0.83396869  0.83396869  0.54005199
   0.33206261  0.83396869  0.54005199
   0.50048728  0.99902544  0.61498914
   0.99902544  0.50048728  0.61498914
   0.50048728  0.50048728  0.61498914
   0.00000000  0.00000000  0.61904352
   0.00000000  0.00000000  0.66953436
 
 position of ions in cartesian coordinates  (Angst):
   0.00000000  0.00000000 12.00000000
   2.77892965  0.00000000 12.00000000
   1.38946483  2.40662367 12.00000000
   4.16839448  2.40662367 12.00000000
   1.38831573  0.80154446 14.33832516
   4.16954357  0.80154446 14.33832516
   2.77892965  3.21015843 14.33832516
   5.55785930  3.20883156 14.30266626
   5.55785930  1.59829948 16.63736001
   2.77892965  1.60441578 16.63406129
   6.95262100  4.01409760 16.63736001
   4.16309760  4.01409760 16.63736001
   5.55785930  4.80855657 18.94594552
   6.94326179  2.40896906 18.94594552
   4.17245681  2.40896906 18.94594552
   0.00000000  0.00000000 19.07084875
   0.00000000  0.00000000 20.62631794
 


--------------------------------------------------------------------------------------------------------


 k-point  1 :   0.0625 0.0625 0.0000  plane waves:   12325
 k-point  2 :   0.1875 0.0625 0.0000  plane waves:   12294
 k-point  3 :   0.3125 0.0625 0.0000  plane waves:   12263
 k-point  4 :   0.4375 0.0625 0.0000  plane waves:   12221
 k-point  5 :  -0.4375 0.0625 0.0000  plane waves:   12211
 k-point  6 :  -0.3125 0.0625 0.0000  plane waves:   12242
 k-point  7 :  -0.1875 0.0625 0.0000  plane waves:   12280
 k-point  8 :  -0.0625 0.0625 0.0000  plane waves:   12329
 k-point  9 :   0.1875 0.1875 0.0000  plane waves:   12277
 k-point 10 :   0.3125 0.1875 0.0000  plane waves:   12288
 k-point 11 :   0.4375 0.1875 0.0000  plane waves:   12234
 k-point 12 :  -0.4375 0.1875 0.0000  plane waves:   12216
 k-point 13 :  -0.3125 0.1875 0.0000  plane waves:   12215
 k-point 14 :  -0.1875 0.1875 0.0000  plane waves:   12289
 k-point 15 :   0.3125 0.3125 0.0000  plane waves:   12275
 k-point 16 :   0.4375 0.3125 0.0000  plane waves:   12239
 k-point 17 :  -0.4375 0.3125 0.0000  plane waves:   12235
 k-point 18 :  -0.3125 0.3125 0.0000  plane waves:   12232
 k-point 19 :   0.4375 0.4375 0.0000  plane waves:   12200
 k-point 20 :  -0.4375 0.4375 0.0000  plane waves:   12214

 maximum and minimum number of plane-waves per node :     12329    12200

 maximum number of plane-waves:     12329
 maximum index in each direction: 
   IXMAX=    8   IYMAX=    8   IZMAX=   46
   IXMIN=   -8   IYMIN=   -8   IZMIN=  -46


 serial   3D FFT for wavefunctions
 parallel 3D FFT for charge:
    minimum data exchange during FFTs selected (reduces bandwidth)


 total amount of memory used by VASP MPI-rank0   201964. kBytes
=======================================================================

   base      :      30000. kBytes
   nonl-proj :     145466. kBytes
   fftplans  :       2015. kBytes
   grid      :       8030. kBytes
   one-center:        264. kBytes
   wavefun   :      16189. kBytes
 
     INWAV:  cpu time    0.0000: real time    0.0000
 Broyden mixing: mesh for mixing (old mesh)
   NGX = 17   NGY = 17   NGZ = 93
  (NGX  = 56   NGY  = 56   NGZ  =288)
  gives a total of  26877 points

 initial charge density was supplied:
 charge density of overlapping atoms calculated
 number of electron     161.0000000 magnetization 
 keeping initial charge density in first step


--------------------------------------------------------------------------------------------------------


 Maximum index for augmentation-charges          824 (set IRDMAX)


--------------------------------------------------------------------------------------------------------


 First call to EWALD:  gamma=   0.189
 Maximum number of real-space cells 5x 5x 1
 Maximum number of reciprocal cells 2x 2x 8

    FEWALD:  cpu time    0.0012: real time    0.0012


--------------------------------------- Iteration      1(   1)  ---------------------------------------


    POTLOK:  cpu time    0.0225: real time    0.0292
    SETDIJ:  cpu time    0.0025: real time    0.0025
     EDDAV:  cpu time    4.1873: real time    4.2004
       DOS:  cpu time    0.0014: real time    0.0014
    --------------------------------------------
      LOOP:  cpu time    4.2137: real time    4.2336

 eigenvalue-minimisations  :  3840
 total energy-change (2. order) : 0.9824686E+03  (-0.5570379E+04)
 number of electron     161.0000000 magnetization 
 augmentation part      161.0000000 magnetization 

 Free energy of the ion-electron system (eV)
  ---------------------------------------------------
  alpha Z        PSCENC =       305.89839443
  Ewald energy   TEWEN  =     98593.59145771
  -Hartree energ DENC   =   -110681.02850673
  -exchange      EXHF   =         0.00000000
  -V(xc)+E(xc)   XCENC  =        48.75925280
  PAW double counting   =     11173.35063782   -10713.98924482
  entropy T*S    EENTRO =         0.00990727
  eigenvalues    EBANDS =       549.71440431
  atomic energy  EATOM  =     11706.16234457
  Solvation  Ediel_sol  =         0.00000000
  ---------------------------------------------------
  free energy    TOTEN  =       982.46864735 eV

  energy without entropy =      982.45874009  energy(sigma->0) =      982.46534493


--------------------------------------------------------------------------------------------------------




--------------------------------------- Iteration      1(   2)  ---------------------------------------


     EDDAV:  cpu time    5.7029: real time    5.7172
       DOS:  cpu time    0.0007: real time    0.0007
    --------------------------------------------
      LOOP:  cpu time    5.7036: real time    5.7179

 eigenvalue-minimisations  :  5592
 total energy-change (2. order) :-0.1025768E+04  (-0.9961776E+03)
 number of electron     161.0000000 magnetization 
 augmentation part      161.0000000 magnetization 

 Free energy of the ion-electron system (eV)
  ---------------------------------------------------
  alpha Z        PSCENC =       305.89839443
  Ewald energy   TEWEN  =     98593.59145771
  -Hartree energ DENC   =   -110681.02850673
  -exchange      EXHF   =         0.00000000
  -V(xc)+E(xc)   XCENC  =        48.75925280
  PAW double counting   =     11173.35063782   -10713.98924482
  entropy T*S    EENTRO =        -0.01760288
  eigenvalues    EBANDS =      -476.02609621
  atomic energy  EATOM  =     11706.16234457
  Solvation  Ediel_sol  =         0.00000000
  ---------------------------------------------------
  free energy    TOTEN  =       -43.29936331 eV

  energy without entropy =      -43.28176043  energy(sigma->0) =      -43.29349568


--------------------------------------------------------------------------------------------------------




--------------------------------------- Iteration      1(   3)  ---------------------------------------


     EDDAV:  cpu time    5.1414: real time    5.1594
       DOS:  cpu time    0.0007: real time    0.0007
    --------------------------------------------
      LOOP:  cpu time    5.1422: real time    5.1601

 eigenvalue-minimisations  :  4800
 total energy-change (2. order) :-0.5833068E+02  (-0.5661535E+02)
 number of electron     161.0000000 magnetization 
 augmentation part      161.0000000 magnetization 

 Free energy of the ion-electron system (eV)
  ---------------------------------------------------
  alpha Z        PSCENC =       305.89839443
  Ewald energy   TEWEN  =     98593.59145771
  -Hartree energ DENC   =   -110681.02850673
  -exchange      EXHF   =         0.00000000
  -V(xc)+E(xc)   XCENC  =        48.75925280
  PAW double counting   =     11173.35063782   -10713.98924482
  entropy T*S    EENTRO =        -0.03515612
  eigenvalues    EBANDS =      -534.33922099
  atomic energy  EATOM  =     11706.16234457
  Solvation  Ediel_sol  =         0.00000000
  ---------------------------------------------------
  free energy    TOTEN  =      -101.63004133 eV

  energy without entropy =     -101.59488521  energy(sigma->0) =     -101.61832262


--------------------------------------------------------------------------------------------------------




--------------------------------------- Iteration      1(   4)  ---------------------------------------


     EDDAV:  cpu time    5.6521: real time    5.6661
       DOS:  cpu time    0.0007: real time    0.0007
    --------------------------------------------
      LOOP:  cpu time    5.6528: real time    5.6668

 eigenvalue-minimisations  :  5568
 total energy-change (2. order) :-0.1237661E+01  (-0.1233119E+01)
 number of electron     161.0000000 magnetization 
 augmentation part      161.0000000 magnetization 

 Free energy of the ion-electron system (eV)
  ---------------------------------------------------
  alpha Z        PSCENC =       305.89839443
  Ewald energy   TEWEN  =     98593.59145771
  -Hartree energ DENC   =   -110681.02850673
  -exchange      EXHF   =         0.00000000
  -V(xc)+E(xc)   XCENC  =        48.75925280
  PAW double counting   =     11173.35063782   -10713.98924482
  entropy T*S    EENTRO =        -0.03679184
  eigenvalues    EBANDS =      -535.57524651
  atomic energy  EATOM  =     11706.16234457
  Solvation  Ediel_sol  =         0.00000000
  ---------------------------------------------------
  free energy    TOTEN  =      -102.86770257 eV

  energy without entropy =     -102.83091073  energy(sigma->0) =     -102.85543862


--------------------------------------------------------------------------------------------------------




--------------------------------------- Iteration      1(   5)  ---------------------------------------


     EDDAV:  cpu time    5.8593: real time    5.8734
       DOS:  cpu time    0.0008: real time    0.0008
    CHARGE:  cpu time    0.1395: real time    0.1398
    MIXING:  cpu time    0.0011: real time    0.0012
    --------------------------------------------
      LOOP:  cpu time    6.0007: real time    6.0152

 eigenvalue-minimisations  :  5784
 total energy-change (2. order) :-0.2966888E-01  (-0.2966085E-01)
 number of electron     161.0000060 magnetization 
 augmentation part       46.8830964 magnetization 

 Broyden mixing:
  rms(total) = 0.41904E+01    rms(broyden)= 0.41903E+01
  rms(prec ) = 0.42256E+01
  weight for this iteration     100.00

 Free energy of the ion-electron system (eV)
  ---------------------------------------------------
  alpha Z        PSCENC =       305.89839443
  Ewald energy   TEWEN  =     98593.59145771
  -Hartree energ DENC   =   -110681.02850673
  -exchange      EXHF   =         0.00000000
  -V(xc)+E(xc)   XCENC  =        48.75925280
  PAW double counting   =     11173.35063782   -10713.98924482
  entropy T*S    EENTRO =        -0.03674986
  eigenvalues    EBANDS =      -535.60495736
  atomic energy  EATOM  =     11706.16234457
  Solvation  Ediel_sol  =         0.00000000
  ---------------------------------------------------
  free energy    TOTEN  =      -102.89737145 eV

  energy without entropy =     -102.86062159  energy(sigma->0) =     -102.88512149


--------------------------------------------------------------------------------------------------------




--------------------------------------- Iteration      1(   6)  ---------------------------------------


    POTLOK:  cpu time    0.0199: real time    0.0259
    SETDIJ:  cpu time    0.0023: real time    0.0023
     EDDAV:  cpu time    5.3667: real time    5.3795
       DOS:  cpu time    0.0008: real time    0.0008
    CHARGE:  cpu time    0.1373: real time    0.1377
    MIXING:  cpu time    0.0009: real time    0.0009
    --------------------------------------------
      LOOP:  cpu time    5.5279: real time    5.5470

 eigenvalue-minimisations  :  5232
 total energy-change (2. order) : 0.2773955E+01  (-0.4096528E+01)
 number of electron     161.0000053 magnetization 
 augmentation part       49.6186369 magnetization 

 Broyden mixing:
  rms(total) = 0.33573E+01    rms(broyden)= 0.33573E+01
  rms(prec ) = 0.36169E+01
  weight for this iteration     100.00

 eigenvalues of (default mixing * dielectric matrix)
  average eigenvalue GAMMA=   1.0365
  1.0365

 Free energy of the ion-electron system (eV)
  ---------------------------------------------------
  alpha Z        PSCENC =       305.89839443
  Ewald energy   TEWEN  =     98593.59145771
  -Hartree energ DENC   =   -110466.23140579
  -exchange      EXHF   =         0.00000000
  -V(xc)+E(xc)   XCENC  =        44.67028205
  PAW double counting   =     12324.38296774   -11888.56596610
  entropy T*S    EENTRO =        -0.03250388
  eigenvalues    EBANDS =      -719.99898718
  atomic energy  EATOM  =     11706.16234457
  Solvation  Ediel_sol  =         0.00000000
  ---------------------------------------------------
  free energy    TOTEN  =      -100.12341645 eV

  energy without entropy =     -100.09091257  energy(sigma->0) =     -100.11258182


--------------------------------------------------------------------------------------------------------




--------------------------------------- Iteration      1(   7)  ---------------------------------------


    POTLOK:  cpu time    0.0175: real time    0.0177
    SETDIJ:  cpu time    0.0023: real time    0.0023
     EDDAV:  cpu time    6.2994: real time    6.3145
       DOS:  cpu time    0.0007: real time    0.0007
    CHARGE:  cpu time    0.1376: real time    0.1379
    MIXING:  cpu time    0.0008: real time    0.0008
    --------------------------------------------
      LOOP:  cpu time    6.4582: real time    6.4738

 eigenvalue-minimisations  :  6312
 total energy-change (2. order) :-0.4537571E+02  (-0.5507392E+02)
 number of electron     161.0000043 magnetization 
 augmentation part       48.1835427 magnetization 

 Broyden mixing:
  rms(total) = 0.65431E+01    rms(broyden)= 0.65431E+01
  rms(prec ) = 0.77414E+01
  weight for this iteration     100.00

 eigenvalues of (default mixing * dielectric matrix)
  average eigenvalue GAMMA=   0.8347
  1.5328  0.1366

 Free energy of the ion-electron system (eV)
  ---------------------------------------------------
  alpha Z        PSCENC =       305.89839443
  Ewald energy   TEWEN  =     98593.59145771
  -Hartree energ DENC   =   -110619.10036850
  -exchange      EXHF   =         0.00000000
  -V(xc)+E(xc)   XCENC  =        44.19156079
  PAW double counting   =     12988.02508623   -12558.83018692
  entropy T*S    EENTRO =        -0.01786705
  eigenvalues    EBANDS =      -605.41955155
  atomic energy  EATOM  =     11706.16234457
  Solvation  Ediel_sol  =         0.00000000
  ---------------------------------------------------
  free energy    TOTEN  =      -145.49913029 eV

  energy without entropy =     -145.48126324  energy(sigma->0) =     -145.49317461


--------------------------------------------------------------------------------------------------------




--------------------------------------- Iteration      1(   8)  ---------------------------------------


    POTLOK:  cpu time    0.0172: real time    0.0174
    SETDIJ:  cpu time    0.0023: real time    0.0023
     EDDAV:  cpu time    5.6937: real time    5.7082
       DOS:  cpu time    0.0008: real time    0.0008
    CHARGE:  cpu time    0.1389: real time    0.1392
    MIXING:  cpu time    0.0010: real time    0.0010
    --------------------------------------------
      LOOP:  cpu time    5.8538: real time    5.8688

 eigenvalue-minimisations  :  5592
 total energy-change (2. order) : 0.2135190E+02  (-0.1748203E+02)
 number of electron     161.0000072 magnetization 
 augmentation part       49.0843710 magnetization 

 Broyden mixing:
  rms(total) = 0.44170E+01    rms(broyden)= 0.44168E+01
  rms(prec ) = 0.49028E+01
  weight for this iteration     100.00

 eigenvalues of (default mixing * dielectric matrix)
  average eigenvalue GAMMA=   0.8306
  2.0399  0.2259  0.2259

 Free energy of the ion-electron system (eV)
  ---------------------------------------------------
  alpha Z        PSCENC =       305.89839443
  Ewald energy   TEWEN  =     98593.59145771
  -Hartree energ DENC   =   -110623.15373776
  -exchange      EXHF   =         0.00000000
  -V(xc)+E(xc)   XCENC  =        43.39810445
  PAW double counting   =     13610.32644341   -13188.76398976
  entropy T*S    EENTRO =         0.00207697
  eigenvalues    EBANDS =      -571.60832188
  atomic energy  EATOM  =     11706.16234457
  Solvation  Ediel_sol  =         0.00000000
  ---------------------------------------------------
  free energy    TOTEN  =      -124.14722787 eV

  energy without entropy =     -124.14930484  energy(sigma->0) =     -124.14792019


--------------------------------------------------------------------------------------------------------




--------------------------------------- Iteration      1(   9)  ---------------------------------------


    POTLOK:  cpu time    0.0184: real time    0.0190
    SETDIJ:  cpu time    0.0024: real time    0.0024
     EDDAV:  cpu time    5.7526: real time    5.7668
       DOS:  cpu time    0.0008: real time    0.0008
    CHARGE:  cpu time    0.1374: real time    0.1377
    MIXING:  cpu time    0.0008: real time    0.0008
    --------------------------------------------
      LOOP:  cpu time    5.9124: real time    5.9275

 eigenvalue-minimisations  :  5664
 total energy-change (2. order) :-0.5788464E+01  (-0.1860850E+02)
 number of electron     161.0000036 magnetization 
 augmentation part       49.5354756 magnetization 

 Broyden mixing:
  rms(total) = 0.44093E+01    rms(broyden)= 0.44091E+01
  rms(prec ) = 0.59205E+01
  weight for this iteration     100.00

 eigenvalues of (default mixing * dielectric matrix)
  average eigenvalue GAMMA=   0.8213
  2.2268  0.6003  0.3079  0.1501

 Free energy of the ion-electron system (eV)
  ---------------------------------------------------
  alpha Z        PSCENC =       305.89839443
  Ewald energy   TEWEN  =     98593.59145771
  -Hartree energ DENC   =   -110486.28980186
  -exchange      EXHF   =         0.00000000
  -V(xc)+E(xc)   XCENC  =        42.98582171
  PAW double counting   =     14194.43398209   -13779.78880242
  entropy T*S    EENTRO =        -0.00026803
  eigenvalues    EBANDS =      -706.92882035
  atomic energy  EATOM  =     11706.16234457
  Solvation  Ediel_sol  =         0.00000000
  ---------------------------------------------------
  free energy    TOTEN  =      -129.93569216 eV

  energy without entropy =     -129.93542413  energy(sigma->0) =     -129.93560281


--------------------------------------------------------------------------------------------------------




--------------------------------------- Iteration      1(  10)  ---------------------------------------


    POTLOK:  cpu time    0.0176: real time    0.0178
    SETDIJ:  cpu time    0.0023: real time    0.0023
     EDDAV:  cpu time    5.8508: real time    5.8648
       DOS:  cpu time    0.0007: real time    0.0007
    CHARGE:  cpu time    0.1376: real time    0.1380
    MIXING:  cpu time    0.0008: real time    0.0008
    --------------------------------------------
      LOOP:  cpu time    6.0098: real time    6.0244

 eigenvalue-minimisations  :  5784
 total energy-change (2. order) : 0.2839945E+02  (-0.1546983E+02)
 number of electron     161.0000049 magnetization 
 augmentation part       50.2987850 magnetization 

 Broyden mixing:
  rms(total) = 0.21377E+01    rms(broyden)= 0.21375E+01
  rms(prec ) = 0.23071E+01
  weight for this iteration     100.00

 eigenvalues of (default mixing * dielectric matrix)
  average eigenvalue GAMMA=   0.7008
  2.2215  0.4288  0.4288  0.2764  0.1488

 Free energy of the ion-electron system (eV)
  ---------------------------------------------------
  alpha Z        PSCENC =       305.89839443
  Ewald energy   TEWEN  =     98593.59145771
  -Hartree energ DENC   =   -110489.11193693
  -exchange      EXHF   =         0.00000000
  -V(xc)+E(xc)   XCENC  =        42.80456386
  PAW double counting   =     14510.27112074   -14098.08796426
  entropy T*S    EENTRO =        -0.03999584
  eigenvalues    EBANDS =      -673.02422281
  atomic energy  EATOM  =     11706.16234457
  Solvation  Ediel_sol  =         0.00000000
  ---------------------------------------------------
  free energy    TOTEN  =      -101.53623853 eV

  energy without entropy =     -101.49624269  energy(sigma->0) =     -101.52290658


--------------------------------------------------------------------------------------------------------




--------------------------------------- Iteration      1(  11)  ---------------------------------------


    POTLOK:  cpu time    0.0176: real time    0.0204
    SETDIJ:  cpu time    0.0023: real time    0.0023
     EDDAV:  cpu time    4.6629: real time    4.6741
       DOS:  cpu time    0.0007: real time    0.0007
    CHARGE:  cpu time    0.1486: real time    0.1489
    MIXING:  cpu time    0.0009: real time    0.0009
    --------------------------------------------
      LOOP:  cpu time    4.8330: real time    4.8474

 eigenvalue-minimisations  :  4416
 total energy-change (2. order) : 0.5405248E+01  (-0.2699735E+01)
 number of electron     161.0000059 magnetization 
 augmentation part       50.4065490 magnetization 

 Broyden mixing:
  rms(total) = 0.91283E+00    rms(broyden)= 0.91270E+00
  rms(prec ) = 0.92789E+00
  weight for this iteration     100.00

 eigenvalues of (default mixing * dielectric matrix)
  average eigenvalue GAMMA=   0.6732
  1.9804  0.6100  0.5249  0.5249  0.2482  0.1507

 Free energy of the ion-electron system (eV)
  ---------------------------------------------------
  alpha Z        PSCENC =       305.89839443
  Ewald energy   TEWEN  =     98593.59145771
  -Hartree energ DENC   =   -110469.26316875
  -exchange      EXHF   =         0.00000000
  -V(xc)+E(xc)   XCENC  =        42.88092074
  PAW double counting   =     14542.43633267   -14130.21112042
  entropy T*S    EENTRO =        -0.04168932
  eigenvalues    EBANDS =      -687.58446199
  atomic energy  EATOM  =     11706.16234457
  Solvation  Ediel_sol  =         0.00000000
  ---------------------------------------------------
  free energy    TOTEN  =       -96.13099037 eV

  energy without entropy =      -96.08930105  energy(sigma->0) =      -96.11709393


--------------------------------------------------------------------------------------------------------




--------------------------------------- Iteration      1(  12)  ---------------------------------------


    POTLOK:  cpu time    0.0175: real time    0.0191
    SETDIJ:  cpu time    0.0023: real time    0.0023
     EDDAV:  cpu time    4.9935: real time    5.0053
       DOS:  cpu time    0.0007: real time    0.0007
    CHARGE:  cpu time    0.1385: real time    0.1388
    MIXING:  cpu time    0.0010: real time    0.0010
    --------------------------------------------
      LOOP:  cpu time    5.1534: real time    5.1672

 eigenvalue-minimisations  :  4800
 total energy-change (2. order) :-0.5127415E-01  (-0.2305690E+00)
 number of electron     161.0000065 magnetization 
 augmentation part       50.1820822 magnetization 

 Broyden mixing:
  rms(total) = 0.79048E+00    rms(broyden)= 0.79044E+00
  rms(prec ) = 0.85028E+00
  weight for this iteration     100.00

 eigenvalues of (default mixing * dielectric matrix)
  average eigenvalue GAMMA=   0.6804
  2.0268  0.7140  0.7140  0.4487  0.4487  0.1496  0.2612

 Free energy of the ion-electron system (eV)
  ---------------------------------------------------
  alpha Z        PSCENC =       305.89839443
  Ewald energy   TEWEN  =     98593.59145771
  -Hartree energ DENC   =   -110484.59169008
  -exchange      EXHF   =         0.00000000
  -V(xc)+E(xc)   XCENC  =        43.09348904
  PAW double counting   =     14403.00547373   -13989.08441926
  entropy T*S    EENTRO =        -0.02769306
  eigenvalues    EBANDS =      -674.22962160
  atomic energy  EATOM  =     11706.16234457
  Solvation  Ediel_sol  =         0.00000000
  ---------------------------------------------------
  free energy    TOTEN  =       -96.18226452 eV

  energy without entropy =      -96.15457146  energy(sigma->0) =      -96.17303350


--------------------------------------------------------------------------------------------------------




--------------------------------------- Iteration      1(  13)  ---------------------------------------


    POTLOK:  cpu time    0.0178: real time    0.0181
    SETDIJ:  cpu time    0.0022: real time    0.0022
     EDDAV:  cpu time    6.0449: real time    6.0594
       DOS:  cpu time    0.0007: real time    0.0007
    CHARGE:  cpu time    0.1387: real time    0.1390
    MIXING:  cpu time    0.0012: real time    0.0012
    --------------------------------------------
      LOOP:  cpu time    6.2056: real time    6.2207

 eigenvalue-minimisations  :  6024
 total energy-change (2. order) :-0.3073801E-01  (-0.5043986E-01)
 number of electron     161.0000063 magnetization 
 augmentation part       50.1786148 magnetization 

 Broyden mixing:
  rms(total) = 0.69532E+00    rms(broyden)= 0.69532E+00
  rms(prec ) = 0.76581E+00
  weight for this iteration     100.00

 eigenvalues of (default mixing * dielectric matrix)
  average eigenvalue GAMMA=   0.7749
  2.1626  1.1779  1.1779  0.4680  0.4680  0.1499  0.2537  0.3412

 Free energy of the ion-electron system (eV)
  ---------------------------------------------------
  alpha Z        PSCENC =       305.89839443
  Ewald energy   TEWEN  =     98593.59145771
  -Hartree energ DENC   =   -110485.46088829
  -exchange      EXHF   =         0.00000000
  -V(xc)+E(xc)   XCENC  =        43.14433323
  PAW double counting   =     14381.15295993   -13967.23862913
  entropy T*S    EENTRO =        -0.03368826
  eigenvalues    EBANDS =      -673.42928671
  atomic energy  EATOM  =     11706.16234457
  Solvation  Ediel_sol  =         0.00000000
  ---------------------------------------------------
  free energy    TOTEN  =       -96.21300253 eV

  energy without entropy =      -96.17931427  energy(sigma->0) =      -96.20177311


--------------------------------------------------------------------------------------------------------




--------------------------------------- Iteration      1(  14)  ---------------------------------------


    POTLOK:  cpu time    0.0187: real time    0.0193
    SETDIJ:  cpu time    0.0023: real time    0.0023
     EDDAV:  cpu time    5.9867: real time    6.0010
       DOS:  cpu time    0.0007: real time    0.0007
    CHARGE:  cpu time    0.1368: real time    0.1371
    MIXING:  cpu time    0.0011: real time    0.0011
    --------------------------------------------
      LOOP:  cpu time    6.1462: real time    6.1615

 eigenvalue-minimisations  :  5976
 total energy-change (2. order) : 0.1256040E+00  (-0.1311785E+00)
 number of electron     161.0000062 magnetization 
 augmentation part       50.1457603 magnetization 

 Broyden mixing:
  rms(total) = 0.42014E+00    rms(broyden)= 0.42012E+00
  rms(prec ) = 0.43174E+00
  weight for this iteration     100.00

 eigenvalues of (default mixing * dielectric matrix)
  average eigenvalue GAMMA=   0.8296
  2.1436  1.5651  1.5651  0.5352  0.5352  0.4553  0.1498  0.2555  0.2614

 Free energy of the ion-electron system (eV)
  ---------------------------------------------------
  alpha Z        PSCENC =       305.89839443
  Ewald energy   TEWEN  =     98593.59145771
  -Hartree energ DENC   =   -110491.64086464
  -exchange      EXHF   =         0.00000000
  -V(xc)+E(xc)   XCENC  =        43.19522412
  PAW double counting   =     14294.71953769   -13880.77984799
  entropy T*S    EENTRO =        -0.02261661
  eigenvalues    EBANDS =      -667.21102780
  atomic energy  EATOM  =     11706.16234457
  Solvation  Ediel_sol  =         0.00000000
  ---------------------------------------------------
  free energy    TOTEN  =       -96.08739851 eV

  energy without entropy =      -96.06478190  energy(sigma->0) =      -96.07985964


--------------------------------------------------------------------------------------------------------




--------------------------------------- Iteration      1(  15)  ---------------------------------------


    POTLOK:  cpu time    0.0183: real time    0.0185
    SETDIJ:  cpu time    0.0024: real time    0.0024
     EDDAV:  cpu time    4.8529: real time    4.8645
       DOS:  cpu time    0.0007: real time    0.0007
    CHARGE:  cpu time    0.1377: real time    0.1380
    MIXING:  cpu time    0.0011: real time    0.0011
    --------------------------------------------
      LOOP:  cpu time    5.0131: real time    5.0252

 eigenvalue-minimisations  :  4632
 total energy-change (2. order) :-0.3438044E-01  (-0.9199410E-01)
 number of electron     161.0000059 magnetization 
 augmentation part       50.1134697 magnetization 

 Broyden mixing:
  rms(total) = 0.37513E+00    rms(broyden)= 0.37511E+00
  rms(prec ) = 0.45924E+00
  weight for this iteration     100.00

 eigenvalues of (default mixing * dielectric matrix)
  average eigenvalue GAMMA=   0.8019
  2.0142  2.0142  1.4840  0.5696  0.5696  0.1498  0.3700  0.2541  0.2968  0.2968

 Free energy of the ion-electron system (eV)
  ---------------------------------------------------
  alpha Z        PSCENC =       305.89839443
  Ewald energy   TEWEN  =     98593.59145771
  -Hartree energ DENC   =   -110497.02444552
  -exchange      EXHF   =         0.00000000
  -V(xc)+E(xc)   XCENC  =        43.31788495
  PAW double counting   =     14195.03086092   -13780.52439234
  entropy T*S    EENTRO =        -0.01794600
  eigenvalues    EBANDS =      -662.55593767
  atomic energy  EATOM  =     11706.16234457
  Solvation  Ediel_sol  =         0.00000000
  ---------------------------------------------------
  free energy    TOTEN  =       -96.12177896 eV

  energy without entropy =      -96.10383296  energy(sigma->0) =      -96.11579696


--------------------------------------------------------------------------------------------------------




--------------------------------------- Iteration      1(  16)  ---------------------------------------


    POTLOK:  cpu time    0.0178: real time    0.0181
    SETDIJ:  cpu time    0.0023: real time    0.0024
     EDDAV:  cpu time    4.5779: real time    4.5888
       DOS:  cpu time    0.0007: real time    0.0007
    CHARGE:  cpu time    0.1373: real time    0.1376
    MIXING:  cpu time    0.0013: real time    0.0013
    --------------------------------------------
      LOOP:  cpu time    4.7374: real time    4.7489

 eigenvalue-minimisations  :  4320
 total energy-change (2. order) : 0.2688697E-01  (-0.9280632E-02)
 number of electron     161.0000060 magnetization 
 augmentation part       50.0977738 magnetization 

 Broyden mixing:
  rms(total) = 0.31723E+00    rms(broyden)= 0.31722E+00
  rms(prec ) = 0.38814E+00
  weight for this iteration     100.00

 eigenvalues of (default mixing * dielectric matrix)
  average eigenvalue GAMMA=   0.8323
  2.0306  2.0306  1.6409  0.7558  0.7558  0.4489  0.4489  0.1498  0.3772  0.2585
  0.2585

 Free energy of the ion-electron system (eV)
  ---------------------------------------------------
  alpha Z        PSCENC =       305.89839443
  Ewald energy   TEWEN  =     98593.59145771
  -Hartree energ DENC   =   -110498.54359253
  -exchange      EXHF   =         0.00000000
  -V(xc)+E(xc)   XCENC  =        43.36341854
  PAW double counting   =     14167.67742744   -13752.90535204
  entropy T*S    EENTRO =        -0.01816238
  eigenvalues    EBANDS =      -661.32082771
  atomic energy  EATOM  =     11706.16234457
  Solvation  Ediel_sol  =         0.00000000
  ---------------------------------------------------
  free energy    TOTEN  =       -96.09489198 eV

  energy without entropy =      -96.07672960  energy(sigma->0) =      -96.08883786


--------------------------------------------------------------------------------------------------------




--------------------------------------- Iteration      1(  17)  ---------------------------------------


    POTLOK:  cpu time    0.0180: real time    0.0241
    SETDIJ:  cpu time    0.0023: real time    0.0023
     EDDAV:  cpu time    5.4052: real time    5.4180
       DOS:  cpu time    0.0008: real time    0.0008
    CHARGE:  cpu time    0.1375: real time    0.1378
    MIXING:  cpu time    0.0013: real time    0.0013
    --------------------------------------------
      LOOP:  cpu time    5.5649: real time    5.5842

 eigenvalue-minimisations  :  5304
 total energy-change (2. order) : 0.5472171E-01  (-0.4633947E-01)
 number of electron     161.0000061 magnetization 
 augmentation part       50.0793955 magnetization 

 Broyden mixing:
  rms(total) = 0.17795E+00    rms(broyden)= 0.17793E+00
  rms(prec ) = 0.19349E+00
  weight for this iteration     100.00

 eigenvalues of (default mixing * dielectric matrix)
  average eigenvalue GAMMA=   0.8130
  2.2192  1.6708  1.6708  0.8325  0.8325  0.5484  0.4820  0.4820  0.1498  0.3443
  0.2553  0.2686

 Free energy of the ion-electron system (eV)
  ---------------------------------------------------
  alpha Z        PSCENC =       305.89839443
  Ewald energy   TEWEN  =     98593.59145771
  -Hartree energ DENC   =   -110502.96680593
  -exchange      EXHF   =         0.00000000
  -V(xc)+E(xc)   XCENC  =        43.39844012
  PAW double counting   =     14168.93257614   -13753.97734305
  entropy T*S    EENTRO =        -0.02491887
  eigenvalues    EBANDS =      -657.05431541
  atomic energy  EATOM  =     11706.16234457
  Solvation  Ediel_sol  =         0.00000000
  ---------------------------------------------------
  free energy    TOTEN  =       -96.04017028 eV

  energy without entropy =      -96.01525141  energy(sigma->0) =      -96.03186399


--------------------------------------------------------------------------------------------------------




--------------------------------------- Iteration      1(  18)  ---------------------------------------


    POTLOK:  cpu time    0.0179: real time    0.0181
    SETDIJ:  cpu time    0.0023: real time    0.0023
     EDDAV:  cpu time    5.7014: real time    5.7241
       DOS:  cpu time    0.0007: real time    0.0007
    CHARGE:  cpu time    0.1367: real time    0.1370
    MIXING:  cpu time    0.0014: real time    0.0014
    --------------------------------------------
      LOOP:  cpu time    5.8604: real time    5.8837

 eigenvalue-minimisations  :  5640
 total energy-change (2. order) : 0.1947759E-01  (-0.1043556E-01)
 number of electron     161.0000061 magnetization 
 augmentation part       50.0767555 magnetization 

 Broyden mixing:
  rms(total) = 0.12697E+00    rms(broyden)= 0.12696E+00
  rms(prec ) = 0.13586E+00
  weight for this iteration     100.00

 eigenvalues of (default mixing * dielectric matrix)
  average eigenvalue GAMMA=   0.7827
  2.0880  1.6545  1.6545  0.9609  0.9609  0.5455  0.5455  0.1498  0.3794  0.3794
  0.3378  0.2560  0.2624

 Free energy of the ion-electron system (eV)
  ---------------------------------------------------
  alpha Z        PSCENC =       305.89839443
  Ewald energy   TEWEN  =     98593.59145771
  -Hartree energ DENC   =   -110504.78553411
  -exchange      EXHF   =         0.00000000
  -V(xc)+E(xc)   XCENC  =        43.38591784
  PAW double counting   =     14199.42227525   -13784.60008036
  entropy T*S    EENTRO =        -0.02435157
  eigenvalues    EBANDS =      -655.07111644
  atomic energy  EATOM  =     11706.16234457
  Solvation  Ediel_sol  =         0.00000000
  ---------------------------------------------------
  free energy    TOTEN  =       -96.02069269 eV

  energy without entropy =      -95.99634112  energy(sigma->0) =      -96.01257550


--------------------------------------------------------------------------------------------------------




--------------------------------------- Iteration      1(  19)  ---------------------------------------


    POTLOK:  cpu time    0.0179: real time    0.0181
    SETDIJ:  cpu time    0.0023: real time    0.0023
     EDDAV:  cpu time    4.9991: real time    5.0110
       DOS:  cpu time    0.0007: real time    0.0007
    CHARGE:  cpu time    0.1370: real time    0.1373
    MIXING:  cpu time    0.0014: real time    0.0014
    --------------------------------------------
      LOOP:  cpu time    5.1583: real time    5.1708

 eigenvalue-minimisations  :  4800
 total energy-change (2. order) : 0.1552296E-02  (-0.1498138E-02)
 number of electron     161.0000060 magnetization 
 augmentation part       50.0744814 magnetization 

 Broyden mixing:
  rms(total) = 0.13009E+00    rms(broyden)= 0.13008E+00
  rms(prec ) = 0.14728E+00
  weight for this iteration     100.00

 eigenvalues of (default mixing * dielectric matrix)
  average eigenvalue GAMMA=   0.7325
  2.0980  1.6436  1.6436  0.9504  0.9504  0.5510  0.5510  0.1498  0.3918  0.3918
  0.3323  0.2558  0.2639  0.0818

 Free energy of the ion-electron system (eV)
  ---------------------------------------------------
  alpha Z        PSCENC =       305.89839443
  Ewald energy   TEWEN  =     98593.59145771
  -Hartree energ DENC   =   -110505.58004389
  -exchange      EXHF   =         0.00000000
  -V(xc)+E(xc)   XCENC  =        43.38657258
  PAW double counting   =     14202.24504374   -13787.41969562
  entropy T*S    EENTRO =        -0.02418531
  eigenvalues    EBANDS =      -654.27902861
  atomic energy  EATOM  =     11706.16234457
  Solvation  Ediel_sol  =         0.00000000
  ---------------------------------------------------
  free energy    TOTEN  =       -96.01914039 eV

  energy without entropy =      -95.99495508  energy(sigma->0) =      -96.01107862


--------------------------------------------------------------------------------------------------------




--------------------------------------- Iteration      1(  20)  ---------------------------------------


    POTLOK:  cpu time    0.0179: real time    0.0181
    SETDIJ:  cpu time    0.0023: real time    0.0023
     EDDAV:  cpu time    4.8275: real time    4.8445
       DOS:  cpu time    0.0007: real time    0.0007
    CHARGE:  cpu time    0.1368: real time    0.1372
    MIXING:  cpu time    0.0015: real time    0.0015
    --------------------------------------------
      LOOP:  cpu time    4.9868: real time    5.0043

 eigenvalue-minimisations  :  4608
 total energy-change (2. order) : 0.7872363E-03  (-0.4609047E-04)
 number of electron     161.0000060 magnetization 
 augmentation part       50.0742692 magnetization 

 Broyden mixing:
[...]
     86      -0.8022      1.11955
     87      -0.4277     -0.02873
     88      -0.0699     -0.00000
     89       0.0750     -0.00000
     90       1.2485     -0.00000
     91       1.9032     -0.00000
     92       2.1033     -0.00000
     93       3.5017     -0.00000
     94       3.9592     -0.00000
     95       4.0167     -0.00000
     96       4.4394     -0.00000

 k-point    19 :       0.4375    0.4375    0.0000
  band No.  band energies     occupation 
      1      -8.6799      2.00000
      2      -8.0086      2.00000
      3      -7.5878      2.00000
      4      -7.1815      2.00000
      5      -6.7066      2.00000
      6      -6.5541      2.00000
      7      -6.5236      2.00000
      8      -6.4959      2.00000
      9      -6.4332      2.00000
     10      -6.4185      2.00000
     11      -6.3866      2.00000
     12      -6.2019      2.00000
     13      -6.0536      2.00000
     14      -6.0493      2.00000
     15      -5.9303      2.00000
     16      -5.8285      2.00000
     17      -5.7727      2.00000
     18      -5.5778      2.00000
     19      -5.5526      2.00000
     20      -5.4928      2.00000
     21      -5.3135      2.00000
     22      -5.2931      2.00000
     23      -5.2449      2.00000
     24      -5.0908      2.00000
     25      -5.0486      2.00000
     26      -5.0446      2.00000
     27      -4.9789      2.00000
     28      -4.8933      2.00000
     29      -4.7422      2.00000
     30      -4.6875      2.00000
     31      -4.6069      2.00000
     32      -4.5827      2.00000
     33      -4.4891      2.00000
     34      -4.4406      2.00000
     35      -4.3914      2.00000
     36      -4.2936      2.00000
     37      -4.1351      2.00000
     38      -4.0387      2.00000
     39      -4.0288      2.00000
     40      -3.9284      2.00000
     41      -3.8485      2.00000
     42      -3.7760      2.00000
     43      -3.7094      2.00000
     44      -3.6904      2.00000
     45      -3.6169      2.00000
     46      -3.5872      2.00000
     47      -3.5758      2.00000
     48      -3.5385      2.00000
     49      -3.4494      2.00000
     50      -3.4364      2.00000
     51      -3.3983      2.00000
     52      -3.2810      2.00000
     53      -3.1594      2.00000
     54      -3.1438      2.00000
     55      -2.9778      2.00000
     56      -2.9574      2.00000
     57      -2.9327      2.00000
     58      -2.8373      2.00000
     59      -2.7002      2.00000
     60      -2.6993      2.00000
     61      -2.5442      2.00000
     62      -2.4866      2.00000
     63      -2.3827      2.00000
     64      -2.3408      2.00000
     65      -2.2509      2.00000
     66      -2.2245      2.00000
     67      -2.1709      2.00000
     68      -2.0611      2.00000
     69      -2.0577      2.00000
     70      -2.0218      2.00000
     71      -1.9648      2.00000
     72      -1.8683      2.00000
     73      -1.7667      2.00000
     74      -1.5837      2.00000
     75      -1.4766      2.00001
     76      -1.3537      2.00047
     77      -1.1826      2.01744
     78      -1.1117      2.04447
     79      -1.0928      2.05316
     80      -0.8221      1.28355
     81      -0.7687      0.83731
     82      -0.7393      0.60057
     83      -0.6916      0.27957
     84      -0.5345     -0.07038
     85      -0.4670     -0.04563
     86      -0.4290     -0.02924
     87       0.8076     -0.00000
     88       1.2026     -0.00000
     89       1.3095     -0.00000
     90       1.5517     -0.00000
     91       1.7751     -0.00000
     92       1.7895     -0.00000
     93       2.5454     -0.00000
     94       2.8494     -0.00000
     95       3.0983     -0.00000
     96       3.9043     -0.00000

 k-point    20 :      -0.4375    0.4375    0.0000
  band No.  band energies     occupation 
      1      -8.2602      2.00000
      2      -8.2165      2.00000
      3      -7.3038      2.00000
      4      -7.2197      2.00000
      5      -6.7672      2.00000
      6      -6.5535      2.00000
      7      -6.4796      2.00000
      8      -6.3987      2.00000
      9      -6.2936      2.00000
     10      -6.2270      2.00000
     11      -6.1802      2.00000
     12      -6.1198      2.00000
     13      -6.0896      2.00000
     14      -5.9076      2.00000
     15      -5.7680      2.00000
     16      -5.6801      2.00000
     17      -5.6710      2.00000
     18      -5.6270      2.00000
     19      -5.5008      2.00000
     20      -5.4617      2.00000
     21      -5.3284      2.00000
     22      -5.2878      2.00000
     23      -5.2206      2.00000
     24      -5.1708      2.00000
     25      -5.1250      2.00000
     26      -5.0999      2.00000
     27      -5.0419      2.00000
     28      -4.9921      2.00000
     29      -4.7783      2.00000
     30      -4.7535      2.00000
     31      -4.6265      2.00000
     32      -4.5878      2.00000
     33      -4.5660      2.00000
     34      -4.4727      2.00000
     35      -4.4214      2.00000
     36      -4.3605      2.00000
     37      -4.2649      2.00000
     38      -4.1385      2.00000
     39      -4.1185      2.00000
     40      -4.0799      2.00000
     41      -4.0288      2.00000
     42      -3.9524      2.00000
     43      -3.9090      2.00000
     44      -3.7767      2.00000
     45      -3.7035      2.00000
     46      -3.6788      2.00000
     47      -3.6553      2.00000
     48      -3.5941      2.00000
     49      -3.5569      2.00000
     50      -3.4496      2.00000
     51      -3.4138      2.00000
     52      -3.3507      2.00000
     53      -3.1776      2.00000
     54      -3.1072      2.00000
     55      -2.9488      2.00000
     56      -2.9097      2.00000
     57      -2.8710      2.00000
     58      -2.7985      2.00000
     59      -2.6825      2.00000
     60      -2.6596      2.00000
     61      -2.5339      2.00000
     62      -2.4619      2.00000
     63      -2.4128      2.00000
     64      -2.3464      2.00000
     65      -2.3077      2.00000
     66      -2.1950      2.00000
     67      -2.1116      2.00000
     68      -2.0848      2.00000
     69      -2.0445      2.00000
     70      -1.9783      2.00000
     71      -1.8487      2.00000
     72      -1.7838      2.00000
     73      -1.6799      2.00000
     74      -1.6413      2.00000
     75      -1.5331      2.00000
     76      -1.3416      2.00064
     77      -1.2603      2.00421
     78      -1.1377      2.03298
     79      -1.1072      2.04651
     80      -0.9258      1.91196
     81      -0.8624      1.58355
     82      -0.8149      1.22533
     83      -0.6887      0.26327
     84      -0.5928     -0.04500
     85      -0.5549     -0.06976
     86      -0.4106     -0.02261
     87       0.2326     -0.00000
     88       0.5154     -0.00000
     89       0.9320     -0.00000
     90       1.4850     -0.00000
     91       1.5520     -0.00000
     92       2.3803     -0.00000
     93       2.8720     -0.00000
     94       3.2021     -0.00000
     95       3.5665     -0.00000
     96       4.0004     -0.00000


--------------------------------------------------------------------------------------------------------


 soft charge-density along one line, spin component           1
         0         1         2         3         4         5         6         7         8         9
 total charge-density along one line
 
 pseudopotential strength for first ion, spin component:           1
 -8.061   0.000   0.000  -0.006   0.000  -8.207   0.000   0.000
  0.000  -7.981  -0.000   0.000  -0.006   0.000  -8.129  -0.000
  0.000  -0.000  -7.972  -0.000   0.000   0.000  -0.000  -8.120
 -0.006   0.000  -0.000  -7.981   0.000  -0.006   0.000  -0.000
  0.000  -0.006   0.000   0.000  -8.061   0.000  -0.006   0.000
 -8.207   0.000   0.000  -0.006   0.000  -8.337   0.000   0.000
  0.000  -8.129  -0.000   0.000  -0.006   0.000  -8.261  -0.000
  0.000  -0.000  -8.120  -0.000   0.000   0.000  -0.000  -8.252
 -0.006   0.000  -0.000  -8.129   0.000  -0.005   0.000  -0.000
  0.000  -0.006   0.000   0.000  -8.207   0.000  -0.005   0.000
  0.000  -0.000  -0.025  -0.000   0.000   0.000  -0.000  -0.025
  0.000  -0.000  -0.037  -0.000   0.000   0.000  -0.000  -0.036
 -0.000  -0.001   0.000  -0.000   0.000  -0.000  -0.001   0.000
 -0.000  -0.000  -0.003  -0.000  -0.000  -0.000  -0.000  -0.003
  0.000  -0.000   0.000  -0.001  -0.000   0.000  -0.000   0.000
 -0.000   0.000   0.000  -0.000   0.001  -0.000   0.001   0.000
 -0.000  -0.000  -0.002  -0.000  -0.000  -0.000  -0.000  -0.001
  0.001  -0.000   0.000   0.000  -0.000   0.001  -0.000   0.000
 total augmentation occupancy for first ion, spin component:           1
  4.791   0.000  -0.000  -0.032   0.000  -2.967   0.000   0.000  -0.052   0.000  -0.000   0.000   0.000   0.000  -0.051  -0.000
  0.000   4.838   0.000   0.000  -0.032   0.000  -2.549   0.000  -0.000  -0.050   0.000   0.000  -0.219   0.000  -0.000   0.011
 -0.000   0.000   5.445   0.000  -0.000   0.000   0.000  -3.251   0.000   0.000   0.866  -0.074   0.000  -0.372   0.000  -0.000
 -0.032   0.000  -0.000   4.838   0.000  -0.050  -0.000   0.000  -2.549  -0.000   0.000   0.000  -0.000   0.000  -0.219   0.000
  0.000  -0.032  -0.000   0.000   4.791   0.000  -0.052   0.000  -0.000  -2.967  -0.000   0.000  -0.051   0.000  -0.000   0.002
 -2.967   0.000   0.000  -0.050  -0.000   3.004  -0.000  -0.000   0.113   0.000   0.000   0.000  -0.000  -0.000   0.047   0.000
  0.000  -2.549   0.000  -0.000  -0.052  -0.000   2.223  -0.000   0.000   0.113   0.000   0.000   0.203   0.000   0.000  -0.009
  0.000   0.000  -3.251   0.000   0.000  -0.000  -0.000   3.004  -0.000  -0.000  -0.790   0.085  -0.000   0.370  -0.000   0.000
 -0.052  -0.000   0.000  -2.549  -0.000   0.113   0.000  -0.000   2.223   0.000  -0.000   0.000   0.000   0.000   0.203  -0.000
  0.000  -0.050   0.000  -0.000  -2.967  -0.000   0.113  -0.000   0.000   3.004   0.000  -0.000   0.047  -0.000   0.000  -0.001
  0.000  -0.000   0.866   0.000  -0.000   0.000   0.000  -0.790  -0.000   0.000   2.541  -0.578   0.000   0.165  -0.000   0.000
  0.000   0.000  -0.074   0.000   0.000   0.000   0.000   0.085   0.000  -0.000  -0.578   0.171   0.000  -0.076   0.000   0.000
  0.000  -0.219   0.000  -0.000  -0.051  -0.000   0.203  -0.000   0.000   0.047   0.000   0.000   0.233  -0.000   0.000  -0.007
  0.000  -0.000  -0.372   0.000   0.000  -0.000  -0.000   0.370  -0.000  -0.000   0.165  -0.076   0.000   0.130  -0.000  -0.000
 -0.051  -0.000   0.000  -0.219  -0.000   0.047   0.000  -0.000   0.203   0.000  -0.000   0.000   0.000  -0.000   0.233  -0.000
 -0.000   0.011  -0.000   0.000   0.002   0.000  -0.009   0.000  -0.000  -0.001   0.000   0.000  -0.007  -0.000  -0.000   0.000
 -0.000   0.000   0.009  -0.000  -0.000   0.000   0.000  -0.011   0.000   0.000  -0.009   0.003  -0.000  -0.004   0.000   0.000
  0.002   0.000  -0.000   0.011   0.000  -0.001   0.000   0.000  -0.009  -0.000   0.000   0.000  -0.000   0.000  -0.007   0.000


------------------------ aborting loop because EDIFF is reached ----------------------------------------



 DIPCOR: dipole corrections for dipol
 direction  3 min pos   284,
 dipolmoment           0.000000      0.000000      0.020703 electrons x Angstroem
 Tr[quadrupol]      -949.644390

 energy correction for charged system         0.000000 eV
 dipol+quadrupol energy correction            0.000047 eV
 added-field ion interaction          0.000000 eV  (added to PSCEN)

 
  *************** adding dipol energy to TOTEN NOW **************** 
    CHARGE:  cpu time    0.1387: real time    0.1390
    FORLOC:  cpu time    0.0038: real time    0.0038
    FORNL :  cpu time    1.6926: real time    1.6966
    STRESS:  cpu time    5.3239: real time    5.3366
    FORCOR:  cpu time    0.0190: real time    0.0190
    FORHAR:  cpu time    0.0073: real time    0.0073
    MIXING:  cpu time    0.0026: real time    0.0026
    OFIELD:  cpu time    0.0000: real time    0.0000

  FORCE on cell =-STRESS in cart. coord.  units (eV):
  Direction    XX          YY          ZZ          XY          YZ          ZX
  --------------------------------------------------------------------------------------
  Alpha Z   305.89839   305.89839   305.89839
  Ewald  107470.51879107470.51879************     0.00000    -0.00000    -0.00000
  Hartree109807.50606109807.50606************    -0.00000     0.00000     0.00000
  E(xc)    -712.79601  -712.79602  -717.60544     0.00001    -0.00000    -0.00000
  Local  ************************222594.54596     0.00104    -0.00004    -0.00007
  n-local    94.33937    18.94462    42.57981   -21.81459    -4.28319     2.51416
  augment   834.49747   834.49837   861.34552    -0.00078     0.00001     0.00001
  Kinetic  2302.93655  2282.97939  2358.08469    -5.54819    -6.07681     3.87469
  Fock        0.00000     0.00000     0.00000     0.00000     0.00000     0.00000
  -------------------------------------------------------------------------------------
  Total     -11.71300   -11.71300     0.00537     0.00000    -0.00000     0.00000
  in kB     -22.77111   -22.77111     0.01045     0.00000    -0.00000     0.00000
  external pressure =      -15.18 kB  Pullay stress =        0.00 kB


 VOLUME and BASIS-vectors are now :
 -----------------------------------------------------------------------------
  energy-cutoff  :      350.00
  volume of cell :      824.13
      direct lattice vectors                 reciprocal lattice vectors
     5.557859300  0.000000000  0.000000000     0.179925390 -0.103879972  0.000000000
     2.778929650  4.813247345  0.000000000     0.000000000  0.207759944  0.000000000
     0.000000000  0.000000000 30.806959674     0.000000000  0.000000000  0.032460198

  length of vectors
     5.557859300  5.557859300 30.806959674     0.207759944  0.207759944  0.032460198


 FORCES acting on ions
    electron-ion (+dipol)            ewald-force                    non-local-force                 convergence-correction
 -----------------------------------------------------------------------------------------------
   0.730E-06 0.421E-06 0.310E+04   -.981E-12 -.516E-12 -.310E+04   0.640E-17 -.596E-18 -.307E+00   0.406E-10 0.234E-10 -.719E-03
   0.754E-06 -.251E+01 0.282E+04   -.101E-11 0.264E+01 -.282E+04   0.104E-16 -.428E-01 -.102E+01   -.178E-10 -.154E-03 -.772E-03
   -.217E+01 0.125E+01 0.282E+04   0.229E+01 -.132E+01 -.282E+04   -.371E-01 0.214E-01 -.102E+01   -.133E-03 0.768E-04 -.772E-03
   0.217E+01 0.125E+01 0.282E+04   -.229E+01 -.132E+01 -.282E+04   0.371E-01 0.214E-01 -.102E+01   0.133E-03 0.768E-04 -.772E-03
   -.530E+01 -.306E+01 0.909E+03   0.538E+01 0.311E+01 -.908E+03   0.606E-01 0.350E-01 -.492E+00   0.208E-03 0.120E-03 -.195E-01
   0.530E+01 -.306E+01 0.909E+03   -.538E+01 0.311E+01 -.908E+03   -.606E-01 0.350E-01 -.492E+00   -.208E-03 0.120E-03 -.195E-01
   0.786E-06 0.612E+01 0.909E+03   -.941E-12 -.621E+01 -.908E+03   0.260E-17 -.700E-01 -.492E+00   0.526E-09 -.240E-03 -.195E-01
   0.826E-06 0.477E-06 0.932E+03   0.388E-11 0.253E-11 -.932E+03   0.412E-17 -.304E-17 0.196E-01   0.173E-09 0.100E-09 -.194E-01
   -.366E-06 0.480E+01 -.977E+03   0.261E-11 -.530E+01 0.977E+03   0.000E+00 0.468E+00 0.166E+00   0.235E-08 0.822E-03 -.257E-01
   -.733E-06 -.423E-06 -.968E+03   -.638E-11 -.165E-10 0.967E+03   0.130E-17 -.130E-17 0.232E+00   0.209E-09 0.120E-09 -.251E-01
   -.416E+01 -.240E+01 -.977E+03   0.459E+01 0.265E+01 0.977E+03   -.405E+00 -.234E+00 0.166E+00   -.712E-03 -.411E-03 -.257E-01
   0.416E+01 -.240E+01 -.977E+03   -.459E+01 0.265E+01 0.977E+03   0.405E+00 -.234E+00 0.166E+00   0.712E-03 -.411E-03 -.257E-01
   -.782E-06 -.337E+01 -.280E+04   -.460E-11 0.326E+01 0.280E+04   -.173E-17 0.609E-01 0.935E+00   0.533E-09 -.106E-03 -.777E-02
   -.292E+01 0.169E+01 -.280E+04   0.282E+01 -.163E+01 0.280E+04   0.527E-01 -.304E-01 0.935E+00   -.919E-04 0.531E-04 -.777E-02
   0.292E+01 0.169E+01 -.280E+04   -.282E+01 -.163E+01 0.280E+04   -.527E-01 -.304E-01 0.935E+00   0.919E-04 0.531E-04 -.777E-02
   0.407E-05 0.235E-05 -.254E+04   0.144E-11 0.747E-12 0.254E+04   -.141E-17 -.217E-18 -.460E+01   0.160E-08 0.926E-09 -.640E-02
   -.517E-06 -.298E-06 -.370E+03   0.270E-13 0.950E-14 0.373E+03   -.197E-18 0.190E-18 -.319E+01   0.684E-11 0.394E-11 0.976E-03
 -----------------------------------------------------------------------------------------------
   0.334E-05 0.193E-05 0.929E+01   0.428E-14 0.147E-13 0.148E-11   0.151E-15 -.555E-16 -.908E+01   0.412E-08 0.238E-08 -.212E+00
 
 
 POSITION                                       TOTAL-FORCE (eV/Angst)
 -----------------------------------------------------------------------------------
      0.00000      0.00000     12.00000         0.000000     -0.000000     -1.002175
      2.77893      0.00000     12.00000         0.000000      0.093415      0.110950
      1.38946      2.40662     12.00000         0.080900     -0.046707      0.110950
      4.16839      2.40662     12.00000        -0.080900     -0.046707      0.110950
      1.38832      0.80154     14.33833         0.141628      0.081769      0.184764
      4.16954      0.80154     14.33833        -0.141628      0.081769      0.184764
      2.77893      3.21016     14.33833         0.000000     -0.163538      0.184764
      5.55786      3.20883     14.30267         0.000000     -0.000000     -0.030771
      5.55786      1.59830     16.63736         0.000000     -0.026162      0.178330
      2.77893      1.60442     16.63406         0.000000     -0.000000      0.153766
      6.95262      4.01410     16.63736         0.022657      0.013081      0.178330
      4.16310      4.01410     16.63736        -0.022657      0.013081      0.178330
      5.55786      4.80856     18.94595         0.000000     -0.053146      0.008315
      6.94326      2.40897     18.94595        -0.046026      0.026573      0.008315
      4.17246      2.40897     18.94595         0.046026      0.026573      0.008315
      0.00000      0.00000     19.07085         0.000000     -0.000000     -1.043605
      0.00000      0.00000     20.62632         0.000000     -0.000000      0.475710
 -----------------------------------------------------------------------------------
    total drift:                                0.000003      0.000002     -0.004591


--------------------------------------------------------------------------------------------------------



  FREE ENERGIE OF THE ION-ELECTRON SYSTEM (eV)
  ---------------------------------------------------
  free  energy   TOTEN  =       -96.00521180 eV

  energy  without entropy=      -95.97683164  energy(sigma->0) =      -95.99575175
 


--------------------------------------------------------------------------------------------------------


    POTLOK:  cpu time    0.0203: real time    0.0204


--------------------------------------------------------------------------------------------------------


     LOOP+:  cpu time  178.9259: real time  179.4256
    4ORBIT:  cpu time    0.0000: real time    0.0000

 total amount of memory used by VASP MPI-rank0   201964. kBytes
=======================================================================

   base      :      30000. kBytes
   nonl-proj :     145466. kBytes
   fftplans  :       2015. kBytes
   grid      :       8030. kBytes
   one-center:        264. kBytes
   wavefun   :      16189. kBytes
 
  
  
 General timing and accounting informations for this job:
 ========================================================
  
                  Total CPU time used (sec):      181.296
                            User time (sec):      180.525
                          System time (sec):        0.771
                         Elapsed time (sec):      182.233
  
                   Maximum memory used (kb):      254120.
                   Average memory used (kb):           0.
  
                          Minor page faults:        79321
                          Major page faults:           24
                 Voluntary context switches:          625
