   16   16    1    1
  0.5150799E+02  0.5557859E-09  0.5557859E-09  0.3080696E-08  0.5000000E-15
  1.000000000000000E-004
  CAR 
 unknown system                          
    160     52     96
 
  0.6250000E-01  0.6250000E-01  0.0000000E+00  0.2083333E-01
    1      -10.252426   1.000000
    2       -8.942113   1.000000
    3       -7.841825   1.000000
    4       -7.794153   1.000000
    5       -7.581133   1.000000
    6       -7.566136   1.000000
    7       -7.493427   1.000000
    8       -7.435070   1.000000
    9       -7.426512   1.000000
   10       -7.324574   1.000000
   11       -6.976156   1.000000
   12       -6.964085   1.000000
   13       -6.905700   1.000000
   14       -6.671080   1.000000
   15       -6.648187   1.000000
   16       -6.619531   1.000000
   17       -6.529684   1.000000
   18       -6.508077   1.000000
   19       -6.503330   1.000000
   20       -5.761814   1.000000
   21       -5.749078   1.000000
   22       -5.688912   1.000000
   23       -4.985933   1.000000
   24       -4.846255   1.000000
   25       -4.844062   1.000000
   26       -4.745547   1.000000
   27       -4.739577   1.000000
   28       -4.716417   1.000000
   29       -4.660531   1.000000
   30       -4.562116   1.000000
   31       -4.482894   1.000000
   32       -4.472772   1.000000
   33       -4.341878   1.000000
   34       -4.317572   1.000000
   35       -4.176625   1.000000
   36       -4.165031   1.000000
   37       -3.980264   1.000000
   38       -3.841478   1.000000
   39       -3.797652   1.000000
   40       -3.773546   1.000000
   41       -3.708416   1.000000
   42       -3.597091   1.000000
   43       -3.550536   1.000000
   44       -3.488964   1.000000
   45       -3.413304   1.000000
   46       -3.146807   1.000000
   47       -3.055831   1.000000
   48       -2.958240   1.000000
   49       -2.901125   1.000000
   50       -2.835634   1.000000
   51       -2.731269   1.000000
   52       -2.486116   1.000000
   53       -2.480186   1.000000
   54       -2.030117   1.000000
   55       -1.996228   1.000000
   56       -1.802205   1.000000
   57       -1.710931   1.000000
   58       -1.690842   1.000000
   59       -1.662184   1.000000
   60       -1.638039   1.000000
   61       -1.568704   1.000005
   62       -1.511988   1.000028
   63       -1.279839   1.006847
   64       -1.253729   1.010372
   65       -1.197444   1.021452
   66       -1.176100   1.026371
   67       -1.129557   1.034756
   68       -1.100990   1.034580
   69       -1.044746   1.006162
   70       -0.991607   0.922640
   71       -0.964246   0.852647
   72       -0.940138   0.776040
   73       -0.800821   0.224306
   74       -0.769760   0.128071
   75       -0.729802   0.039037
   76       -0.705638   0.004075
   77       -0.642010  -0.034283
   78       -0.525792  -0.017549
   79       -0.409482  -0.002649
   80       -0.340820  -0.000583
   81       -0.310749  -0.000276
   82       -0.243392  -0.000043
   83       -0.109208  -0.000001
   84       -0.038075  -0.000000
   85        0.013127  -0.000000
   86        0.030371  -0.000000
   87        0.335858  -0.000000
   88        0.413118  -0.000000
   89        1.116930  -0.000000
   90        1.471222  -0.000000
   91        1.521155  -0.000000
   92        1.614914  -0.000000
   93        1.729456  -0.000000
   94        1.770810  -0.000000
   95        2.481456  -0.000000
   96        2.525432  -0.000000
 
  0.0000000E+00  0.6250000E-01  0.0000000E+00  0.1041667E-01
    1      -10.252427   1.000000
    2       -8.942114   1.000000
    3       -7.841831   1.000000
    4       -7.794183   1.000000
    5       -7.584440   1.000000
    6       -7.561671   1.000000
    7       -7.494535   1.000000
    8       -7.434733   1.000000
    9       -7.426789   1.000000
   10       -7.324746   1.000000
   11       -6.976293   1.000000
   12       -6.963809   1.000000
   13       -6.905769   1.000000
   14       -6.675148   1.000000
   15       -6.638491   1.000000
   16       -6.624964   1.000000
   17       -6.528229   1.000000
   18       -6.514169   1.000000
   19       -6.498886   1.000000
   20       -5.760551   1.000000
   21       -5.750014   1.000000
   22       -5.689220   1.000000
   23       -4.986451   1.000000
   24       -4.844659   1.000000
   25       -4.841192   1.000000
   26       -4.760026   1.000000
   27       -4.727434   1.000000
   28       -4.716192   1.000000
   29       -4.662343   1.000000
   30       -4.561684   1.000000
   31       -4.479170   1.000000
   32       -4.477432   1.000000
   33       -4.345454   1.000000
   34       -4.314160   1.000000
   35       -4.171698   1.000000
   36       -4.169480   1.000000
   37       -3.980359   1.000000
   38       -3.839588   1.000000
   39       -3.799523   1.000000
   40       -3.772631   1.000000
   41       -3.709532   1.000000
   42       -3.597551   1.000000
   43       -3.554459   1.000000
   44       -3.481721   1.000000
   45       -3.416343   1.000000
   46       -3.110499   1.000000
   47       -3.108074   1.000000
   48       -2.945492   1.000000
   49       -2.908095   1.000000
   50       -2.798257   1.000000
   51       -2.757645   1.000000
   52       -2.484172   1.000000
   53       -2.481757   1.000000
   54       -2.019549   1.000000
   55       -2.010374   1.000000
   56       -1.796502   1.000000
   57       -1.717173   1.000000
   58       -1.676685   1.000000
   59       -1.667887   1.000000
   60       -1.640014   1.000000
   61       -1.578577   1.000003
   62       -1.502393   1.000037
   63       -1.257778   1.009755
   64       -1.243328   1.012078
   65       -1.223740   1.015750
   66       -1.191327   1.022858
   67       -1.150129   1.031827
   68       -1.109890   1.035337
   69       -1.021581   0.977847
   70       -1.013776   0.965579
   71       -0.940955   0.778845
   72       -0.906352   0.649316
   73       -0.810584   0.258907
   74       -0.770054   0.128875
   75       -0.756036   0.092963
   76       -0.669652  -0.025526
   77       -0.665765  -0.027381
   78       -0.524779  -0.017334
   79       -0.403025  -0.002325
   80       -0.345243  -0.000648
   81       -0.308671  -0.000261
   82       -0.243652  -0.000043
   83       -0.110425  -0.000001
   84       -0.036726  -0.000000
   85        0.015285  -0.000000
   86        0.025403  -0.000000
   87        0.336916  -0.000000
   88        0.409806  -0.000000
   89        1.116253  -0.000000
   90        1.476948  -0.000000
   91        1.536271  -0.000000
   92        1.593873  -0.000000
   93        1.736852  -0.000000
   94        1.766632  -0.000000
   95        2.486072  -0.000000
   96        2.518928  -0.000000
 
  0.1875000E+00  0.6250000E-01  0.0000000E+00  0.2083333E-01
    1      -10.048887   1.000000
    2       -8.740605   1.000000
    3       -7.635162   1.000000
    4       -7.605208   1.000000
    5       -7.547221   1.000000
    6       -7.470288   1.000000
    7       -7.358199   1.000000
    8       -7.329937   1.000000
    9       -7.289719   1.000000
   10       -7.180654   1.000000
   11       -6.872196   1.000000
   12       -6.865445   1.000000
   13       -6.814198   1.000000
   14       -6.620058   1.000000
   15       -6.553068   1.000000
   16       -6.444232   1.000000
   17       -6.424928   1.000000
   18       -6.376808   1.000000
   19       -6.302674   1.000000
   20       -5.705336   1.000000
   21       -5.686434   1.000000
   22       -5.630423   1.000000
   23       -4.995390   1.000000
   24       -4.921867   1.000000
   25       -4.851129   1.000000
   26       -4.841501   1.000000
   27       -4.749231   1.000000
   28       -4.690590   1.000000
   29       -4.659662   1.000000
   30       -4.588402   1.000000
   31       -4.529970   1.000000
   32       -4.354834   1.000000
   33       -4.246498   1.000000
   34       -4.222621   1.000000
   35       -4.153842   1.000000
   36       -4.109928   1.000000
   37       -3.973874   1.000000
   38       -3.955287   1.000000
   39       -3.935106   1.000000
   40       -3.733618   1.000000
   41       -3.703700   1.000000
   42       -3.676427   1.000000
   43       -3.638185   1.000000
   44       -3.587081   1.000000
   45       -3.559039   1.000000
   46       -3.457204   1.000000
   47       -3.270735   1.000000
   48       -3.138371   1.000000
   49       -2.917838   1.000000
   50       -2.824304   1.000000
   51       -2.691490   1.000000
   52       -2.573032   1.000000
   53       -2.525757   1.000000
   54       -2.165769   1.000000
   55       -2.006775   1.000000
   56       -1.975383   1.000000
   57       -1.943790   1.000000
   58       -1.917372   1.000000
   59       -1.894092   1.000000
   60       -1.801251   1.000000
   61       -1.768855   1.000000
   62       -1.721509   1.000000
   63       -1.667271   1.000000
   64       -1.623126   1.000001
   65       -1.567697   1.000005
   66       -1.486744   1.000059
   67       -1.324543   1.003033
   68       -1.290661   1.005688
   69       -1.196707   1.021621
   70       -1.133540   1.034338
   71       -1.120405   1.035364
   72       -1.095283   1.033681
   73       -1.006975   0.953699
   74       -0.969278   0.866920
   75       -0.928864   0.735946
   76       -0.853031   0.426690
   77       -0.843251   0.386169
   78       -0.789515   0.186714
   79       -0.744750   0.067650
   80       -0.664294  -0.028025
   81       -0.585286  -0.030795
   82       -0.443925  -0.005091
   83       -0.406675  -0.002504
   84       -0.289799  -0.000159
   85       -0.228431  -0.000028
   86        0.131744  -0.000000
   87        0.237455  -0.000000
   88        0.777447  -0.000000
   89        0.818463  -0.000000
   90        1.084308  -0.000000
   91        1.248407  -0.000000
   92        1.614182  -0.000000
   93        2.080549  -0.000000
   94        2.520664  -0.000000
   95        2.938884  -0.000000
   96        3.312327  -0.000000
 
  0.1250000E+00  0.1875000E+00  0.0000000E+00  0.2083333E-01
    1      -10.048890   1.000000
    2       -8.740613   1.000000
    3       -7.635182   1.000000
    4       -7.605387   1.000000
    5       -7.548505   1.000000
    6       -7.467682   1.000000
    7       -7.358092   1.000000
    8       -7.331265   1.000000
    9       -7.289316   1.000000
   10       -7.181365   1.000000
   11       -6.875555   1.000000
   12       -6.861241   1.000000
   13       -6.814870   1.000000
   14       -6.620360   1.000000
   15       -6.552411   1.000000
   16       -6.438209   1.000000
   17       -6.431511   1.000000
   18       -6.376912   1.000000
   19       -6.302271   1.000000
   20       -5.703160   1.000000
   21       -5.686875   1.000000
   22       -5.632049   1.000000
   23       -4.996218   1.000000
   24       -4.919073   1.000000
   25       -4.848696   1.000000
   26       -4.838851   1.000000
   27       -4.752287   1.000000
   28       -4.683548   1.000000
   29       -4.666061   1.000000
   30       -4.592644   1.000000
   31       -4.535484   1.000000
   32       -4.356009   1.000000
   33       -4.240109   1.000000
   34       -4.227118   1.000000
   35       -4.146134   1.000000
   36       -4.112664   1.000000
   37       -3.979116   1.000000
   38       -3.953273   1.000000
   39       -3.932662   1.000000
   40       -3.738038   1.000000
   41       -3.691487   1.000000
   42       -3.671014   1.000000
   43       -3.651815   1.000000
   44       -3.588794   1.000000
   45       -3.561089   1.000000
   46       -3.452569   1.000000
   47       -3.271434   1.000000
   48       -3.147095   1.000000
   49       -2.896373   1.000000
   50       -2.831181   1.000000
   51       -2.691415   1.000000
   52       -2.575996   1.000000
   53       -2.526833   1.000000
   54       -2.156240   1.000000
   55       -2.039386   1.000000
   56       -1.980737   1.000000
   57       -1.933565   1.000000
   58       -1.903246   1.000000
   59       -1.860174   1.000000
   60       -1.825079   1.000000
   61       -1.782049   1.000000
   62       -1.730495   1.000000
   63       -1.656850   1.000000
   64       -1.613103   1.000001
   65       -1.564384   1.000005
   66       -1.495550   1.000045
   67       -1.322109   1.003181
   68       -1.294602   1.005306
   69       -1.206778   1.019350
   70       -1.129671   1.034745
   71       -1.112976   1.035435
   72       -1.088792   1.032219
   73       -0.992894   0.925469
   74       -0.982833   0.902242
   75       -0.907970   0.655787
   76       -0.869291   0.495184
   77       -0.839832   0.372198
   78       -0.798880   0.217659
   79       -0.745104   0.068396
   80       -0.657871  -0.030476
   81       -0.617112  -0.035203
   82       -0.446862  -0.005364
   83       -0.394499  -0.001949
   84       -0.283044  -0.000132
   85       -0.225477  -0.000025
   86        0.134260  -0.000000
   87        0.236785  -0.000000
   88        0.779606  -0.000000
   89        0.817229  -0.000000
   90        1.082188  -0.000000
   91        1.249597  -0.000000
   92        1.614778  -0.000000
   93        2.080466  -0.000000
   94        2.519767  -0.000000
   95        2.938477  -0.000000
   96        3.313427  -0.000000
 
 -0.6250000E-01  0.1250000E+00  0.0000000E+00  0.2083333E-01
    1      -10.048892   1.000000
    2       -8.740618   1.000000
    3       -7.635235   1.000000
    4       -7.605530   1.000000
    5       -7.548961   1.000000
    6       -7.466425   1.000000
    7       -7.358467   1.000000
    8       -7.330642   1.000000
    9       -7.290133   1.000000
   10       -7.181726   1.000000
   11       -6.875964   1.000000
   12       -6.860255   1.000000
   13       -6.815262   1.000000
   14       -6.621958   1.000000
   15       -6.549351   1.000000
   16       -6.445531   1.000000
   17       -6.424098   1.000000
   18       -6.378550   1.000000
   19       -6.302108   1.000000
   20       -5.697722   1.000000
   21       -5.691269   1.000000
   22       -5.633030   1.000000
   23       -4.998596   1.000000
   24       -4.914898   1.000000
   25       -4.849269   1.000000
   26       -4.836151   1.000000
   27       -4.753912   1.000000
   28       -4.682467   1.000000
   29       -4.667563   1.000000
   30       -4.592553   1.000000
   31       -4.540175   1.000000
   32       -4.354875   1.000000
   33       -4.240585   1.000000
   34       -4.226085   1.000000
   35       -4.146449   1.000000
   36       -4.111672   1.000000
   37       -3.977888   1.000000
   38       -3.952148   1.000000
   39       -3.935044   1.000000
   40       -3.738348   1.000000
   41       -3.691699   1.000000
   42       -3.673523   1.000000
   43       -3.644488   1.000000
   44       -3.595161   1.000000
   45       -3.561530   1.000000
   46       -3.446682   1.000000
   47       -3.285880   1.000000
   48       -3.135008   1.000000
   49       -2.906694   1.000000
   50       -2.806755   1.000000
   51       -2.703218   1.000000
   52       -2.576220   1.000000
   53       -2.528476   1.000000
   54       -2.154832   1.000000
   55       -2.039764   1.000000
   56       -1.980781   1.000000
   57       -1.927303   1.000000
   58       -1.910582   1.000000
   59       -1.874738   1.000000
   60       -1.822029   1.000000
   61       -1.763017   1.000000
   62       -1.752062   1.000000
   63       -1.639620   1.000000
   64       -1.610876   1.000001
   65       -1.559096   1.000006
   66       -1.504509   1.000035
   67       -1.310686   1.003957
   68       -1.298293   1.004968
   69       -1.227686   1.014964
   70       -1.152513   1.031385
   71       -1.097693   1.034103
   72       -1.073065   1.026441
   73       -1.015605   0.968584
   74       -0.955952   0.827793
   75       -0.913663   0.678285
   76       -0.863517   0.470772
   77       -0.823280   0.306511
   78       -0.811700   0.262976
   79       -0.747130   0.072720
   80       -0.683437  -0.016995
   81       -0.563828  -0.026159
   82       -0.465440  -0.007369
   83       -0.409182  -0.002633
   84       -0.284410  -0.000137
   85       -0.225894  -0.000025
   86        0.132977  -0.000000
   87        0.241535  -0.000000
   88        0.776255  -0.000000
   89        0.819284  -0.000000
   90        1.081733  -0.000000
   91        1.254163  -0.000000
   92        1.613231  -0.000000
   93        2.078927  -0.000000
   94        2.520061  -0.000000
   95        2.938702  -0.000000
   96        3.312619  -0.000000
 
  0.3125000E+00  0.6250000E-01  0.0000000E+00  0.2083333E-01
    1       -9.596310   1.000000
    2       -8.305171   1.000000
    3       -7.629984   1.000000
    4       -7.253016   1.000000
    5       -7.206702   1.000000
    6       -7.192538   1.000000
    7       -7.176909   1.000000
    8       -7.011062   1.000000
    9       -7.003167   1.000000
   10       -6.884382   1.000000
   11       -6.690621   1.000000
   12       -6.630266   1.000000
   13       -6.584545   1.000000
   14       -6.534446   1.000000
   15       -6.292184   1.000000
   16       -6.270480   1.000000
   17       -6.105238   1.000000
   18       -6.022912   1.000000
   19       -5.908145   1.000000
   20       -5.576837   1.000000
   21       -5.550127   1.000000
   22       -5.507370   1.000000
   23       -5.158023   1.000000
   24       -5.104726   1.000000
   25       -5.020555   1.000000
   26       -4.963222   1.000000
   27       -4.882846   1.000000
   28       -4.732942   1.000000
   29       -4.590777   1.000000
   30       -4.526031   1.000000
   31       -4.392222   1.000000
   32       -4.295849   1.000000
   33       -4.258170   1.000000
   34       -4.205581   1.000000
   35       -4.155801   1.000000
   36       -4.115883   1.000000
   37       -4.088207   1.000000
   38       -4.025195   1.000000
   39       -3.993899   1.000000
   40       -3.979192   1.000000
   41       -3.884883   1.000000
   42       -3.855262   1.000000
   43       -3.814852   1.000000
   44       -3.767102   1.000000
   45       -3.603900   1.000000
   46       -3.426839   1.000000
   47       -3.392087   1.000000
   48       -3.240905   1.000000
   49       -2.992263   1.000000
   50       -2.930970   1.000000
   51       -2.858921   1.000000
   52       -2.786268   1.000000
   53       -2.722150   1.000000
   54       -2.652454   1.000000
   55       -2.617453   1.000000
   56       -2.599706   1.000000
   57       -2.516603   1.000000
   58       -2.482280   1.000000
   59       -2.411016   1.000000
   60       -2.336281   1.000000
   61       -2.210614   1.000000
   62       -2.079359   1.000000
   63       -1.988438   1.000000
   64       -1.966562   1.000000
   65       -1.901371   1.000000
   66       -1.859845   1.000000
   67       -1.730158   1.000000
   68       -1.664532   1.000000
   69       -1.611198   1.000001
   70       -1.572495   1.000004
   71       -1.479745   1.000072
   72       -1.369425   1.001184
   73       -1.357664   1.001533
   74       -1.286204   1.006145
   75       -1.203269   1.020132
   76       -1.145396   1.032652
   77       -1.110743   1.035372
   78       -1.006906   0.953573
   79       -0.947884   0.802080
   80       -0.885431   0.563283
   81       -0.796082   0.208214
   82       -0.772323   0.135147
   83       -0.732097   0.043070
   84       -0.617505  -0.035226
   85       -0.484677  -0.009995
   86        0.268166  -0.000000
   87        0.378090  -0.000000
   88        0.482305  -0.000000
   89        0.954822  -0.000000
   90        1.635353  -0.000000
   91        1.873549  -0.000000
   92        1.917031  -0.000000
   93        2.297863  -0.000000
   94        2.623369  -0.000000
   95        3.232121  -0.000000
   96        3.869670  -0.000000
 
  0.2500000E+00  0.3125000E+00  0.0000000E+00  0.2083333E-01
    1       -9.596318   1.000000
    2       -8.305182   1.000000
    3       -7.630042   1.000000
    4       -7.253110   1.000000
    5       -7.206923   1.000000
    6       -7.191612   1.000000
    7       -7.177144   1.000000
    8       -7.012040   1.000000
    9       -7.002806   1.000000
   10       -6.884598   1.000000
   11       -6.689838   1.000000
   12       -6.632662   1.000000
   13       -6.582601   1.000000
   14       -6.534177   1.000000
   15       -6.293253   1.000000
   16       -6.269178   1.000000
   17       -6.105522   1.000000
   18       -6.023056   1.000000
   19       -5.908563   1.000000
   20       -5.577500   1.000000
   21       -5.546925   1.000000
   22       -5.509218   1.000000
   23       -5.154904   1.000000
   24       -5.104217   1.000000
   25       -5.022774   1.000000
   26       -4.963494   1.000000
   27       -4.878773   1.000000
   28       -4.735134   1.000000
   29       -4.594078   1.000000
   30       -4.527871   1.000000
   31       -4.397145   1.000000
   32       -4.303047   1.000000
   33       -4.245388   1.000000
   34       -4.205737   1.000000
   35       -4.164370   1.000000
   36       -4.117400   1.000000
   37       -4.079791   1.000000
   38       -4.030752   1.000000
   39       -3.989848   1.000000
   40       -3.971920   1.000000
   41       -3.883362   1.000000
   42       -3.871525   1.000000
   43       -3.804081   1.000000
   44       -3.761934   1.000000
   45       -3.603110   1.000000
   46       -3.429611   1.000000
   47       -3.395866   1.000000
   48       -3.246061   1.000000
   49       -2.990617   1.000000
   50       -2.922507   1.000000
   51       -2.859649   1.000000
   52       -2.771768   1.000000
   53       -2.741271   1.000000
   54       -2.660409   1.000000
   55       -2.615744   1.000000
   56       -2.592829   1.000000
   57       -2.519450   1.000000
   58       -2.472706   1.000000
   59       -2.414317   1.000000
   60       -2.324355   1.000000
   61       -2.203322   1.000000
   62       -2.085327   1.000000
   63       -2.005241   1.000000
   64       -1.962969   1.000000
   65       -1.910203   1.000000
   66       -1.844358   1.000000
   67       -1.734257   1.000000
   68       -1.669830   1.000000
   69       -1.623446   1.000001
   70       -1.550628   1.000008
   71       -1.485370   1.000061
   72       -1.388950   1.000758
   73       -1.344596   1.002022
   74       -1.291428   1.005612
   75       -1.195586   1.021878
   76       -1.150963   1.031674
   77       -1.110679   1.035370
   78       -1.012222   0.962963
   79       -0.949644   0.807813
   80       -0.878773   0.535270
   81       -0.791592   0.193411
   82       -0.764356   0.113682
   83       -0.739878   0.057715
   84       -0.613580  -0.034955
   85       -0.487219  -0.010386
   86        0.267105  -0.000000
   87        0.379469  -0.000000
   88        0.483786  -0.000000
   89        0.954964  -0.000000
   90        1.635317  -0.000000
   91        1.880701  -0.000000
   92        1.909439  -0.000000
   93        2.297506  -0.000000
   94        2.623959  -0.000000
   95        3.231733  -0.000000
   96        3.868640  -0.000000
 
 -0.6250000E-01  0.2500000E+00  0.0000000E+00  0.2083333E-01
    1       -9.596345   1.000000
    2       -8.305212   1.000000
    3       -7.629662   1.000000
    4       -7.257581   1.000000
    5       -7.204472   1.000000
    6       -7.188758   1.000000
    7       -7.177492   1.000000
    8       -7.015165   1.000000
    9       -7.000256   1.000000
   10       -6.886231   1.000000
   11       -6.693068   1.000000
   12       -6.626791   1.000000
   13       -6.584880   1.000000
   14       -6.534090   1.000000
   15       -6.290953   1.000000
   16       -6.269944   1.000000
   17       -6.105914   1.000000
   18       -6.021150   1.000000
   19       -5.909882   1.000000
   20       -5.563717   1.000000
   21       -5.553794   1.000000
   22       -5.516792   1.000000
   23       -5.156510   1.000000
   24       -5.111192   1.000000
   25       -5.016047   1.000000
   26       -4.951434   1.000000
   27       -4.881882   1.000000
   28       -4.741874   1.000000
   29       -4.601462   1.000000
   30       -4.530296   1.000000
   31       -4.400379   1.000000
   32       -4.276827   1.000000
   33       -4.257257   1.000000
   34       -4.192344   1.000000
   35       -4.157879   1.000000
   36       -4.125314   1.000000
   37       -4.095107   1.000000
   38       -4.033689   1.000000
   39       -4.005048   1.000000
   40       -3.956813   1.000000
   41       -3.888638   1.000000
   42       -3.863628   1.000000
   43       -3.812670   1.000000
   44       -3.744029   1.000000
   45       -3.630369   1.000000
   46       -3.418082   1.000000
   47       -3.394279   1.000000
   48       -3.240659   1.000000
   49       -2.970738   1.000000
   50       -2.936901   1.000000
   51       -2.827421   1.000000
   52       -2.786246   1.000000
   53       -2.752360   1.000000
   54       -2.661727   1.000000
   55       -2.618384   1.000000
   56       -2.602035   1.000000
   57       -2.509373   1.000000
   58       -2.468188   1.000000
   59       -2.432228   1.000000
   60       -2.319143   1.000000
   61       -2.197483   1.000000
   62       -2.068275   1.000000
   63       -2.043371   1.000000
   64       -1.969580   1.000000
   65       -1.884847   1.000000
   66       -1.855713   1.000000
   67       -1.716933   1.000000
   68       -1.667059   1.000000
   69       -1.590094   1.000002
   70       -1.569843   1.000004
   71       -1.482748   1.000066
   72       -1.420412   1.000353
   73       -1.365783   1.001284
   74       -1.270583   1.007975
   75       -1.218736   1.016776
   76       -1.148696   1.032084
   77       -1.070360   1.025091
   78       -0.997422   0.935087
   79       -0.951112   0.812544
   80       -0.912715   0.674566
   81       -0.832364   0.342123
   82       -0.769275   0.126749
   83       -0.660917  -0.029385
   84       -0.605809  -0.034158
   85       -0.532416  -0.018982
   86        0.267850  -0.000000
   87        0.386486  -0.000000
   88        0.489539  -0.000000
   89        0.951237  -0.000000
   90        1.633581  -0.000000
   91        1.876564  -0.000000
   92        1.919279  -0.000000
   93        2.292789  -0.000000
   94        2.622502  -0.000000
   95        3.230304  -0.000000
   96        3.869122  -0.000000
 
  0.4375000E+00  0.6250000E-01  0.0000000E+00  0.2083333E-01
    1       -8.959429   1.000000
    2       -7.983906   1.000000
    3       -7.742195   1.000000
    4       -7.202535   1.000000
    5       -6.905654   1.000000
    6       -6.812636   1.000000
    7       -6.714499   1.000000
    8       -6.655756   1.000000
    9       -6.616546   1.000000
   10       -6.599305   1.000000
   11       -6.545513   1.000000
   12       -6.325303   1.000000
   13       -6.285631   1.000000
   14       -6.163711   1.000000
   15       -6.087453   1.000000
   16       -6.068570   1.000000
   17       -5.880636   1.000000
   18       -5.626320   1.000000
   19       -5.569913   1.000000
   20       -5.488380   1.000000
   21       -5.383686   1.000000
   22       -5.343095   1.000000
   23       -5.311358   1.000000
   24       -5.215299   1.000000
   25       -5.166484   1.000000
   26       -5.076584   1.000000
   27       -5.024484   1.000000
   28       -4.800538   1.000000
   29       -4.700056   1.000000
   30       -4.687471   1.000000
   31       -4.662987   1.000000
   32       -4.539075   1.000000
   33       -4.439575   1.000000
   34       -4.399699   1.000000
   35       -4.334519   1.000000
   36       -4.187892   1.000000
   37       -4.119786   1.000000
   38       -4.069007   1.000000
   39       -3.960259   1.000000
   40       -3.889674   1.000000
   41       -3.834593   1.000000
   42       -3.771376   1.000000
   43       -3.736111   1.000000
   44       -3.696516   1.000000
   45       -3.645770   1.000000
   46       -3.621364   1.000000
   47       -3.508683   1.000000
   48       -3.446225   1.000000
   49       -3.433397   1.000000
   50       -3.351710   1.000000
   51       -3.310740   1.000000
   52       -3.238301   1.000000
   53       -3.182517   1.000000
   54       -3.099423   1.000000
   55       -3.012439   1.000000
   56       -2.947825   1.000000
   57       -2.848557   1.000000
   58       -2.795460   1.000000
   59       -2.720147   1.000000
   60       -2.504884   1.000000
   61       -2.461927   1.000000
   62       -2.406592   1.000000
   63       -2.357519   1.000000
   64       -2.312910   1.000000
   65       -2.235010   1.000000
   66       -2.182540   1.000000
   67       -2.106792   1.000000
   68       -2.002858   1.000000
   69       -1.947315   1.000000
   70       -1.930713   1.000000
   71       -1.868494   1.000000
   72       -1.785997   1.000000
   73       -1.571069   1.000004
   74       -1.455177   1.000142
   75       -1.363614   1.001347
   76       -1.262172   1.009115
   77       -1.242426   1.012235
   78       -1.172124   1.027272
   79       -1.035338   0.996063
   80       -0.946529   0.797619
   81       -0.860611   0.458509
   82       -0.803251   0.232740
   83       -0.748071   0.074765
   84       -0.665216  -0.027625
   85       -0.498884  -0.012313
   86       -0.255993  -0.000062
   87        0.612917  -0.000000
   88        1.010085  -0.000000
   89        1.108783  -0.000000
   90        1.717772  -0.000000
   91        1.935228  -0.000000
   92        2.080305  -0.000000
   93        2.481477  -0.000000
   94        3.004874  -0.000000
   95        3.579780  -0.000000
   96        3.956880  -0.000000
 
  0.3750000E+00  0.4375000E+00  0.0000000E+00  0.2083333E-01
    1       -8.959444   1.000000
    2       -7.983879   1.000000
    3       -7.742213   1.000000
    4       -7.202637   1.000000
    5       -6.904245   1.000000
    6       -6.814239   1.000000
    7       -6.714147   1.000000
    8       -6.659044   1.000000
    9       -6.616790   1.000000
   10       -6.597822   1.000000
   11       -6.543236   1.000000
   12       -6.324841   1.000000
   13       -6.286680   1.000000
   14       -6.163661   1.000000
   15       -6.088571   1.000000
   16       -6.066246   1.000000
   17       -5.881956   1.000000
   18       -5.627777   1.000000
   19       -5.568563   1.000000
   20       -5.486615   1.000000