 vasp.5.4.4.18Apr17-6-g9f103f2a35 (build Apr 28 2017 10:53:45) complex          
  
 executed on             LinuxIFC date 2020.02.16  21:18:39
 running on   24 total cores
 distrk:  each k-point on   24 cores,    1 groups
 distr:  one band on NCORES_PER_BAND=   1 cores,   24 groups


--------------------------------------------------------------------------------------------------------


 INCAR:
 POTCAR:    PAW_PBE Ir 06Sep2000                  
 POTCAR:    PAW_PBE Pt 04Feb2005                  
 POTCAR:    PAW_PBE Au 04Oct2007                  

 ----------------------------------------------------------------------------- 
|                                                                             |
|           W    W    AA    RRRRR   N    N  II  N    N   GGGG   !!!           |
|           W    W   A  A   R    R  NN   N  II  NN   N  G    G  !!!           |
|           W    W  A    A  R    R  N N  N  II  N N  N  G       !!!           |
|           W WW W  AAAAAA  RRRRR   N  N N  II  N  N N  G  GGG   !            |
|           WW  WW  A    A  R   R   N   NN  II  N   NN  G    G                |
|           W    W  A    A  R    R  N    N  II  N    N   GGGG   !!!           |
|                                                                             |
|      For optimal performance we recommend to set                            |
|        NCORE= 4 - approx SQRT( number of cores)                             |
|      NCORE specifies how many cores store one orbital (NPAR=cpu/NCORE).     |
|      This setting can  greatly improve the performance of VASP for DFT.     |
|      The default,   NCORE=1            might be grossly inefficient         |
|      on modern multi-core architectures or massively parallel machines.     |
|      Do your own testing !!!!                                               |
|      Unfortunately you need to use the default for GW and RPA calculations. |
|      (for HF NCORE is supported but not extensively tested yet)             |
|                                                                             |
 ----------------------------------------------------------------------------- 

 POTCAR:    PAW_PBE Ir 06Sep2000                  
   SHA256 =  7c6af8d4d487b237782eb51e6f62977b27a1da78c3c96acd1cebefd6c308f120 Ir
   COPYR  = (c) Copyright 06Sep2000 Georg Kresse                                
   COPYR  = This file is part of the software VASP. Any use, copying, and all ot
   COPYR  = If you do not have a valid VASP license, you may not use, copy or di
   VRHFIN =Ir: s1d8                                                             
   LEXCH  = PE                                                                  
   EATOM  =   560.1833 eV,   41.1723 Ry                                         
                                                                                
   TITEL  = PAW_PBE Ir 06Sep2000                                                
   LULTRA =        F    use ultrasoft PP ?                                      
   IUNSCR =        1    unscreen: 0-lin 1-nonlin 2-no                           
   RPACOR =    2.250    partial core radius                                     
   POMASS =  192.220; ZVAL   =    9.000    mass and valenz                      
   RCORE  =    2.600    outmost cutoff radius                                   
   RWIGS  =    2.690; RWIGS  =    1.423    wigner-seitz radius (au A)           
   ENMAX  =  210.864; ENMIN  =  158.148 eV                                      
   RCLOC  =    1.857    cutoff for local pot                                    
   LCOR   =        T    correct aug charges                                     
   LPAW   =        T    paw PP                                                  
   EAUG   =  318.962                                                            
   DEXC   =    0.000                                                            
   RMAX   =    2.667    core radius for proj-oper                               
   RAUG   =    1.300    factor for augmentation sphere                          
   RDEP   =    2.748    radius for radial grids                                 
   RDEPT  =    2.300    core radius for aug-charge                              
                                                                                
   Atomic configuration                                                         
   16 entries                                                                   
     n  l   j            E        occ.                                          
     1  0  0.50    -76100.0449   2.0000                                         
     2  0  0.50    -13308.1683   2.0000                                         
     2  1  1.50    -11558.0021   6.0000                                         
     3  0  0.50     -3110.7274   2.0000                                         
     3  1  1.50     -2599.2109   6.0000                                         
     3  2  2.50     -2037.1515  10.0000                                         
     4  0  0.50      -661.6001   2.0000                                         
     4  1  1.50      -493.8981   6.0000                                         
     4  2  2.50      -288.1909  10.0000                                         
     4  3  3.50       -59.5718  14.0000                                         
     5  0  0.50       -95.3879   2.0000                                         
     5  1  1.50       -52.2747   6.0000                                         
     5  2  2.50        -5.4180   8.0000                                         
     6  0  0.50        -5.5479   1.0000                                         
     6  1  1.50        -6.8029   0.0000                                         
     5  3  2.50        -1.3606   0.0000                                         
   Description                                                                  
     l       E           TYP  RCUT    TYP  RCUT                                 
     2     -5.4179967     23  2.600                                             
     2     -6.7785793     23  2.600                                             
     0     -5.5478636     23  2.600                                             
     0      2.2542272     23  2.600                                             
     1     -2.7211652     23  2.600                                             
     1     20.4087390     23  2.600                                             
  local pseudopotential read in
  partial core-charges read in
  partial kinetic energy density read in
  atomic valenz-charges read in
  non local Contribution for L=           2  read in
    real space projection operators read in
  non local Contribution for L=           2  read in
    real space projection operators read in
  non local Contribution for L=           0  read in
    real space projection operators read in
  non local Contribution for L=           0  read in
    real space projection operators read in
  non local Contribution for L=           1  read in
    real space projection operators read in
  non local Contribution for L=           1  read in
    real space projection operators read in
    PAW grid and wavefunctions read in
 
   number of l-projection  operators is LMAX  =           6
   number of lm-projection operators is LMMAX =          18
 
 POTCAR:    PAW_PBE Pt 04Feb2005                  
   SHA256 =  3ed90460adef76debcff1cfb73ee1349b515b1a3db03439735b44de3a8db7dc8 Pt
   COPYR  = (c) Copyright 04Feb2005 Georg Kresse                                
   COPYR  = This file is part of the software VASP. Any use, copying, and all ot
   COPYR  = If you do not have a valid VASP license, you may not use, copy or di
   VRHFIN =Pt: s1d9                                                             
   LEXCH  = PE                                                                  
   EATOM  =   729.1176 eV,   53.5886 Ry                                         
                                                                                
   TITEL  = PAW_PBE Pt 04Feb2005                                                
   LULTRA =        F    use ultrasoft PP ?                                      
   IUNSCR =        1    unscreen: 0-lin 1-nonlin 2-no                           
   RPACOR =    2.330    partial core radius                                     
   POMASS =  195.080; ZVAL   =   10.000    mass and valenz                      
   RCORE  =    2.600    outmost cutoff radius                                   
   RWIGS  =    2.750; RWIGS  =    1.455    wigner-seitz radius (au A)           
   ENMAX  =  230.283; ENMIN  =  172.712 eV                                      
   ICORE  =        3    local potential                                         
   LCOR   =        T    correct aug charges                                     
   LPAW   =        T    paw PP                                                  
   EAUG   =  358.966                                                            
   DEXC   =    0.000                                                            
   RMAX   =    2.658    core radius for proj-oper                               
   RAUG   =    1.300    factor for augmentation sphere                          
   RDEP   =    2.761    radius for radial grids                                 
   RDEPT  =    2.203    core radius for aug-charge                              
                                                                                
   Atomic configuration                                                         
   16 entries                                                                   
     n  l   j            E        occ.                                          
     1  0  0.50    -78401.1885   2.0000                                         
     2  0  0.50    -13770.7750   2.0000                                         
     2  1  1.50    -11931.0468   6.0000                                         
     3  0  0.50     -3234.7234   2.0000                                         
     3  1  1.50     -2699.2216   6.0000                                         
     3  2  2.50     -2119.5714  10.0000                                         
     4  0  0.50      -695.1528   2.0000                                         
     4  1  1.50      -519.6034   6.0000                                         
     4  2  2.50      -306.6786  10.0000                                         
     4  3  3.50       -70.1041  14.0000                                         
     5  0  0.50      -101.7747   2.0000                                         
     5  1  1.50       -55.9873   6.0000                                         
     5  2  2.50        -6.1423   9.0000                                         
     6  0  0.50        -5.6573   1.0000                                         
     6  1  1.50        -6.8029   0.0000                                         
     5  3  2.50        -1.3606   0.0000                                         
   Description                                                                  
     l       E           TYP  RCUT    TYP  RCUT                                 
     2     -6.1423404     23  2.500                                             
     2     -7.5029230     23  2.500                                             
     0     -5.6573207     23  2.500                                             
     0      0.7416693     23  2.500                                             
     1     -2.7211652     23  2.600                                             
     1     20.4087390     23  2.600                                             
     3     -1.3605826     23  2.500                                             
  local pseudopotential read in
  partial core-charges read in
  partial kinetic energy density read in
  atomic valenz-charges read in
  non local Contribution for L=           2  read in
    real space projection operators read in
  non local Contribution for L=           2  read in
    real space projection operators read in
  non local Contribution for L=           0  read in
    real space projection operators read in
  non local Contribution for L=           0  read in
    real space projection operators read in
  non local Contribution for L=           1  read in
    real space projection operators read in
  non local Contribution for L=           1  read in
    real space projection operators read in
    PAW grid and wavefunctions read in
 
   number of l-projection  operators is LMAX  =           6
   number of lm-projection operators is LMMAX =          18
 
 POTCAR:    PAW_PBE Au 04Oct2007                  
   SHA256 =  d0044ae04e2bdce24051b198fc5c053d722a5bc6fe3c3b100514a13fc5d2db88 Au
   COPYR  = (c) Copyright 04Oct2007 Georg Kresse                                
   COPYR  = This file is part of the software VASP. Any use, copying, and all ot
   COPYR  = If you do not have a valid VASP license, you may not use, copy or di
   VRHFIN =Au: s1d10                                                            
   LEXCH  = PE                                                                  
   EATOM  =   926.0867 eV,   68.0654 Ry                                         
                                                                                
   TITEL  = PAW_PBE Au 04Oct2007                                                
   LULTRA =        F    use ultrasoft PP ?                                      
   IUNSCR =        1    unscreen: 0-lin 1-nonlin 2-no                           
   RPACOR =    2.330    partial core radius                                     
   POMASS =  196.966; ZVAL   =   11.000    mass and valenz                      
   RCORE  =    2.500    outmost cutoff radius                                   
   RWIGS  =    2.840; RWIGS  =    1.503    wigner-seitz radius (au A)           
   ENMAX  =  229.943; ENMIN  =  172.457 eV                                      
   ICORE  =        3    local potential                                         
   LCOR   =        T    correct aug charges                                     
   LPAW   =        T    paw PP                                                  
   EAUG   =  356.670                                                            
   DEXC   =    0.000                                                            
   RMAX   =    2.562    core radius for proj-oper                               
   RAUG   =    1.300    factor for augmentation sphere                          
   RDEP   =    2.598    radius for radial grids                                 
   RDEPT  =    2.193    core radius for aug-charge                              
                                                                                
   Atomic configuration                                                         
   16 entries                                                                   
     n  l   j            E        occ.                                          
     1  0  0.50    -80748.5001   2.0000                                         
     2  0  0.50    -14244.7466   2.0000                                         
     2  1  1.50    -12310.9591   6.0000                                         
     3  0  0.50     -3362.1768   2.0000                                         
     3  1  1.50     -2801.5463   6.0000                                         
     3  2  2.50     -2203.8206  10.0000                                         
     4  0  0.50      -729.8168   2.0000                                         
     4  1  1.50      -546.0527   6.0000                                         
     4  2  2.50      -325.7302  10.0000                                         
     4  3  3.50       -81.1472  14.0000                                         
     5  0  0.50      -108.3201   2.0000                                         
     5  1  1.50       -59.7479   6.0000                                         
     5  2  2.50        -6.8783  10.0000                                         
     6  0  0.50        -5.7602   1.0000                                         
     6  1  1.50        -6.8029   0.0000                                         
     5  3  2.50        -1.3606   0.0000                                         
   Description                                                                  
     l       E           TYP  RCUT    TYP  RCUT                                 
     2     -6.8782861     23  2.500                                             
     2     -8.2388687     23  2.500                                             
     0     -5.7601759     23  2.500                                             
     0     -0.8493231     23  2.500                                             
     1     -2.7211652     23  2.500                                             
     1     27.2116520     23  2.500                                             
     3     -1.3605826     23  2.500                                             
  local pseudopotential read in
  partial core-charges read in
  partial kinetic energy density read in
  atomic valenz-charges read in
  non local Contribution for L=           2  read in
    real space projection operators read in
  non local Contribution for L=           2  read in
    real space projection operators read in
  non local Contribution for L=           0  read in
    real space projection operators read in
  non local Contribution for L=           0  read in
    real space projection operators read in
  non local Contribution for L=           1  read in
    real space projection operators read in
  non local Contribution for L=           1  read in
    real space projection operators read in
    PAW grid and wavefunctions read in
 
   number of l-projection  operators is LMAX  =           6
   number of lm-projection operators is LMMAX =          18
 
  PAW_PBE Ir 06Sep2000                  :
 energy of atom  1       EATOM= -560.1833
 kinetic energy error for atom=    0.0056 (will be added to EATOM!!)
  PAW_PBE Pt 04Feb2005                  :
 energy of atom  2       EATOM= -729.1176
 kinetic energy error for atom=    0.0144 (will be added to EATOM!!)
  PAW_PBE Au 04Oct2007                  :
 energy of atom  3       EATOM= -926.0867
 kinetic energy error for atom=    0.0152 (will be added to EATOM!!)
 
 
 POSCAR: Ir Pt Au                                
  positions in cartesian coordinates
  No initial velocities read in
 exchange correlation table for  LEXCH =        8
   RHO(1)=    0.500       N(1)  =     2000
   RHO(2)=  100.500       N(2)  =     4000
 


--------------------------------------------------------------------------------------------------------


 ion  position               nearest neighbor table
   1  0.000  0.000  0.390-   3 2.78   3 2.78   4 2.78   4 2.78   2 2.78   2 2.78   5 2.82   6 2.82
                             7 2.82
   2  0.500  0.000  0.390-   4 2.78   3 2.78   4 2.78   3 2.78   1 2.78   1 2.78   6 2.82   5 2.82
                             8 2.82
   3  0.000  0.500  0.390-   1 2.78   1 2.78   2 2.78   2 2.78   4 2.78   4 2.78   7 2.82   5 2.82
                             8 2.82
   4  0.500  0.500  0.390-   2 2.78   1 2.78   2 2.78   1 2.78   3 2.78   3 2.78   8 2.82   7 2.82
                             6 2.82
   5  0.167  0.167  0.465-   7 2.78   7 2.78   8 2.78   8 2.78   6 2.78   6 2.78  11 2.80  16 2.80
                             9 2.80   1 2.82   3 2.82   2 2.82
   6  0.667  0.167  0.465-   8 2.78   7 2.78   8 2.78   7 2.78   5 2.78   5 2.78   9 2.80  10 2.80
                            16 2.80   2 2.82   4 2.82   1 2.82
   7  0.167  0.667  0.465-   5 2.78   5 2.78   6 2.78   6 2.78   8 2.78   8 2.78   9 2.80  10 2.80
                            11 2.80   3 2.82   4 2.82   1 2.82
   8  0.667  0.667  0.465-   6 2.78   5 2.78   6 2.78   5 2.78   7 2.78   7 2.78  11 2.80  16 2.80
                            10 2.80   4 2.82   2 2.82   3 2.82
   9  0.333  0.333  0.539-  11 2.78  10 2.78  11 2.78  10 2.78  16 2.78  16 2.78   6 2.80   7 2.80
                             5 2.80  15 2.83  13 2.83  14 2.83
  10  0.833  0.833  0.539-  16 2.78   9 2.78  16 2.78   9 2.78  11 2.78  11 2.78   6 2.80   7 2.80
                             8 2.80  12 2.83  14 2.83  13 2.83
  11  0.333  0.833  0.539-   9 2.78   9 2.78  16 2.78  16 2.78  10 2.78  10 2.78   5 2.80   8 2.80
                             7 2.80  13 2.83  15 2.83  12 2.83
  12  0.000  0.000  0.615-  14 2.78  14 2.78  15 2.78  15 2.78  13 2.78  13 2.78  10 2.83  16 2.83
                            11 2.83
  13  0.500  0.000  0.615-  15 2.78  14 2.78  15 2.78  14 2.78  12 2.78  12 2.78  11 2.83   9 2.83
                            10 2.83
  14  0.000  0.500  0.615-  12 2.78  12 2.78  13 2.78  13 2.78  15 2.78  15 2.78  16 2.83  10 2.83
                             9 2.83
  15  0.500  0.500  0.615-  13 2.78  12 2.78  13 2.78  12 2.78  14 2.78  14 2.78   9 2.83  11 2.83
                            16 2.83
  16  0.833  0.333  0.539-  10 2.78  10 2.78  11 2.78  11 2.78   9 2.78   9 2.78   5 2.80   8 2.80
                             6 2.80  14 2.83  12 2.83  15 2.83
 
  LATTYP: Found a hexagonal cell.
 ALAT       =     5.5578593001
 C/A-ratio  =     5.5429542221
  
  Lattice vectors:
  
 A1 = (   2.7789296501,  -4.8132473446,   0.0000000000)
 A2 = (  -5.5578593001,   0.0000000000,   0.0000000000)
 A3 = (   0.0000000000,   0.0000000000, -30.8069596737)


Analysis of symmetry for initial positions (statically):
=====================================================================
 Subroutine PRICEL returns:
 Original cell was already a primitive cell.
 

 Routine SETGRP: Setting up the symmetry group for a 
 hexagonal supercell.


 Subroutine GETGRP returns: Found  2 space group operations
 (whereof  2 operations were pure point group operations)
 out of a pool of 24 trial point group operations.


The static configuration has the point symmetry C_1h.


Analysis of symmetry for dynamics (positions and initial velocities):
=====================================================================
 Subroutine PRICEL returns:
 Original cell was already a primitive cell.
 

 Routine SETGRP: Setting up the symmetry group for a 
 hexagonal supercell.


 Subroutine GETGRP returns: Found  2 space group operations
 (whereof  2 operations were pure point group operations)
 out of a pool of 24 trial point group operations.


The dynamic configuration has the point symmetry C_1h.


Analysis of constrained symmetry for selective dynamics:
=====================================================================
 Subroutine PRICEL returns:
 Original cell was already a primitive cell.
 

 Routine SETGRP: Setting up the symmetry group for a 
 hexagonal supercell.


 Subroutine GETGRP returns: Found  2 space group operations
 (whereof  2 operations were pure point group operations)
 out of a pool of 24 trial point group operations.


The constrained configuration has the point symmetry C_1h.


 Subroutine INISYM returns: Found  2 space group operations
 (whereof  2 operations are pure point group operations),
 and found     1 'primitive' translations

 
 
 KPOINTS: KPOINTS created by Atomic Simulation Env

Automatic generation of k-mesh.
Space group operators:
 irot       det(A)        alpha          n_x          n_y          n_z        tau_x        tau_y        tau_z
    1     1.000000     0.000001     1.000000     0.000000     0.000000     0.000000     0.000000     0.000000
    2    -1.000000   180.000000     1.000000     0.000000     0.000000     0.000000     0.000000     0.000000
 
 Subroutine IBZKPT returns following result:
 ===========================================
 
 Found     52 irreducible k-points:
 
 Following reciprocal coordinates:
            Coordinates               Weight
  0.062500  0.062500  0.000000     32.000000
  0.000000  0.062500  0.000000     16.000000
  0.187500  0.062500  0.000000     32.000000
  0.125000  0.187500  0.000000     32.000000
 -0.062500  0.125000  0.000000     32.000000
  0.312500  0.062500  0.000000     32.000000
  0.250000  0.312500  0.000000     32.000000
 -0.062500  0.250000  0.000000     32.000000
  0.437500  0.062500  0.000000     32.000000
  0.375000  0.437500  0.000000     32.000000
 -0.062500  0.375000  0.000000     32.000000
 -0.437500  0.062500  0.000000     32.000000
  0.500000 -0.437500  0.000000     32.000000
 -0.062500  0.500000  0.000000     32.000000
 -0.312500  0.062500  0.000000     32.000000
 -0.375000 -0.312500  0.000000     32.000000
 -0.062500 -0.375000  0.000000     32.000000
 -0.187500  0.062500  0.000000     32.000000
 -0.250000 -0.187500  0.000000     32.000000
 -0.062500 -0.250000  0.000000     32.000000
 -0.062500  0.062500  0.000000     32.000000
 -0.125000 -0.062500  0.000000     16.000000
  0.187500  0.187500  0.000000     32.000000
  0.000000  0.187500  0.000000     16.000000
  0.312500  0.187500  0.000000     32.000000
  0.125000  0.312500  0.000000     32.000000
 -0.187500  0.125000  0.000000     32.000000
  0.437500  0.187500  0.000000     32.000000
  0.250000  0.437500  0.000000     32.000000
 -0.187500  0.250000  0.000000     32.000000
 -0.437500  0.187500  0.000000     32.000000
  0.375000 -0.437500  0.000000     32.000000
 -0.187500  0.375000  0.000000     32.000000
 -0.312500  0.187500  0.000000     32.000000
  0.500000 -0.312500  0.000000     32.000000
 -0.187500  0.500000  0.000000     32.000000
 -0.187500  0.187500  0.000000     32.000000
 -0.375000 -0.187500  0.000000     16.000000
  0.312500  0.312500  0.000000     32.000000
  0.000000  0.312500  0.000000     16.000000
  0.437500  0.312500  0.000000     32.000000
  0.125000  0.437500  0.000000     32.000000
 -0.312500  0.125000  0.000000     32.000000
 -0.437500  0.312500  0.000000     32.000000
  0.250000 -0.437500  0.000000     32.000000
 -0.312500  0.250000  0.000000     32.000000
 -0.312500  0.312500  0.000000     32.000000
  0.375000 -0.312500  0.000000     16.000000
  0.437500  0.437500  0.000000     32.000000
  0.000000  0.437500  0.000000     16.000000
 -0.437500  0.437500  0.000000     32.000000
  0.125000 -0.437500  0.000000     16.000000
 
 Following cartesian coordinates:
            Coordinates               Weight
  0.011245  0.006492  0.000000     32.000000
  0.000000  0.012985  0.000000     16.000000
  0.033736 -0.006492  0.000000     32.000000
  0.022491  0.025970  0.000000     32.000000
 -0.011245  0.032462  0.000000     32.000000
  0.056227 -0.019477  0.000000     32.000000
  0.044981  0.038955  0.000000     32.000000
 -0.011245  0.058432  0.000000     32.000000
  0.078717 -0.032462  0.000000     32.000000
  0.067472  0.051940  0.000000     32.000000
 -0.011245  0.084402  0.000000     32.000000
 -0.078717  0.058432  0.000000     32.000000
  0.089963 -0.142835  0.000000     32.000000
 -0.011245  0.110372  0.000000     32.000000
 -0.056227  0.045447  0.000000     32.000000
 -0.067472 -0.025970  0.000000     32.000000
 -0.011245 -0.071417  0.000000     32.000000
 -0.033736  0.032462  0.000000     32.000000
 -0.044981 -0.012985  0.000000     32.000000
 -0.011245 -0.045447  0.000000     32.000000
 -0.011245  0.019477  0.000000     32.000000
 -0.022491  0.000000  0.000000     16.000000
  0.033736  0.019477  0.000000     32.000000
  0.000000  0.038955  0.000000     16.000000
  0.056227  0.006492  0.000000     32.000000
  0.022491  0.051940  0.000000     32.000000
 -0.033736  0.045447  0.000000     32.000000
  0.078717 -0.006492  0.000000     32.000000
  0.044981  0.064925  0.000000     32.000000
 -0.033736  0.071417  0.000000     32.000000
 -0.078717  0.084402  0.000000     32.000000
  0.067472 -0.129850  0.000000     32.000000
 -0.033736  0.097387  0.000000     32.000000
 -0.056227  0.071417  0.000000     32.000000
  0.089963 -0.116865  0.000000     32.000000
 -0.033736  0.123357  0.000000     32.000000
 -0.033736  0.058432  0.000000     32.000000
 -0.067472  0.000000  0.000000     16.000000
  0.056227  0.032462  0.000000     32.000000
  0.000000  0.064925  0.000000     16.000000
  0.078717  0.019477  0.000000     32.000000
  0.022491  0.077910  0.000000     32.000000
 -0.056227  0.058432  0.000000     32.000000
 -0.078717  0.110372  0.000000     32.000000
  0.044981 -0.116865  0.000000     32.000000
 -0.056227  0.084402  0.000000     32.000000
 -0.056227  0.097387  0.000000     32.000000
  0.067472 -0.103880  0.000000     16.000000
  0.078717  0.045447  0.000000     32.000000
  0.000000  0.090895  0.000000     16.000000
 -0.078717  0.136342  0.000000     32.000000
  0.022491 -0.103880  0.000000     16.000000
 


--------------------------------------------------------------------------------------------------------




 Dimension of arrays:
   k-points           NKPTS =     52   k-points in BZ     NKDIM =     52   number of bands    NBANDS=     96
   number of dos      NEDOS =    301   number of ions     NIONS =     16
   non local maximal  LDIM  =      6   non local SUM 2l+1 LMDIM =     18
   total plane-waves  NPLWV = 112896
   max r-space proj   IRMAX =      1   max aug-charges    IRDMAX=  10104
   dimension x,y,z NGX =    28 NGY =   28 NGZ =  144
   dimension x,y,z NGXF=    56 NGYF=   56 NGZF=  288
   support grid    NGXF=    56 NGYF=   56 NGZF=  288
   ions per type =               1  14   1
   NGX,Y,Z   is equivalent  to a cutoff of   8.38,  8.38,  7.77 a.u.
   NGXF,Y,Z  is equivalent  to a cutoff of  16.75, 16.75, 15.54 a.u.

 SYSTEM =  unknown system                          
 POSCAR =  Ir Pt Au                                

 Startparameter for this run:
   NWRITE =      2    write-flag & timer
   PREC   = normal    normal or accurate (medium, high low for compatibility)
   ISTART =      0    job   : 0-new  1-cont  2-samecut
   ICHARG =      2    charge: 1-file 2-atom 10-const
   ISPIN  =      1    spin polarized calculation?
   LNONCOLLINEAR =      F non collinear calculations
   LSORBIT =      F    spin-orbit coupling
   INIWAV =      1    electr: 0-lowe 1-rand  2-diag
   LASPH  =      F    aspherical Exc in radial PAW
   METAGGA=      F    non-selfconsistent MetaGGA calc.

 Electronic Relaxation 1
   ENCUT  =  350.0 eV  25.72 Ry    5.07 a.u.   8.48  8.48 46.99*2*pi/ulx,y,z
   ENINI  =  350.0     initial cutoff
   ENAUG  =  359.0 eV  augmentation charge cutoff
   NELM   =     60;   NELMIN=  2; NELMDL= -5     # of ELM steps 
   EDIFF  = 0.1E-04   stopping-criterion for ELM
   LREAL  =      F    real-space projection
   NLSPLINE    = F    spline interpolate recip. space projectors
   LCOMPAT=      F    compatible to vasp.4.4
   GGA_COMPAT  = T    GGA compatible to vasp.4.4-vasp.4.6
   LMAXPAW     = -100 max onsite density
   LMAXMIX     =    2 max onsite mixed and CHGCAR
   VOSKOWN=      0    Vosko Wilk Nusair interpolation
   ROPT   =    0.00000   0.00000   0.00000
 Ionic relaxation
   EDIFFG = -.5E-01   stopping-criterion for IOM
   NSW    =      0    number of steps for IOM
   NBLOCK =      1;   KBLOCK =      1    inner block; outer block 
   IBRION =     -1    ionic relax: 0-MD 1-quasi-New 2-CG
   NFREE  =      1    steps in history (QN), initial steepest desc. (CG)
   ISIF   =      2    stress and relaxation
   IWAVPR =     10    prediction:  0-non 1-charg 2-wave 3-comb
   ISYM   =      2    0-nonsym 1-usesym 2-fastsym
   LCORR  =      T    Harris-Foulkes like correction to forces

   POTIM  = 0.5000    time-step for ionic-motion
   TEIN   =    0.0    initial temperature
   TEBEG  =    0.0;   TEEND  =   0.0 temperature during run
   SMASS  =  -3.00    Nose mass-parameter (am)
   estimated Nose-frequenzy (Omega)   =  0.10E-29 period in steps =****** mass=  -0.706E-27a.u.
   SCALEE = 1.0000    scale energy and forces
   NPACO  =    256;   APACO  = 16.0  distance and # of slots for P.C.
   PSTRESS=    0.0 pullay stress

  Mass of Ions in am
   POMASS = 192.22195.08196.97
  Ionic Valenz
   ZVAL   =   9.00 10.00 11.00
  Atomic Wigner-Seitz radii
   RWIGS  =  -1.00 -1.00 -1.00
  virtual crystal weights 
   VCA    =   1.00  1.00  1.00
   NELECT =     160.0000    total number of electrons
   NUPDOWN=      -1.0000    fix difference up-down

 DOS related values:
   EMIN   =  10.00;   EMAX   =-10.00  energy-range for DOS
   EFERMI =   0.00
   ISMEAR =     1;   SIGMA  =   0.20  broadening in eV -4-tet -1-fermi 0-gaus

 Electronic relaxation 2 (details)
   IALGO  =     38    algorithm
   LDIAG  =      T    sub-space diagonalisation (order eigenvalues)
   LSUBROT=      F    optimize rotation matrix (better conditioning)
   TURBO    =      0    0=normal 1=particle mesh
   IRESTART =      0    0=no restart 2=restart with 2 vectors
   NREBOOT  =      0    no. of reboots
   NMIN     =      0    reboot dimension
   EREF     =   0.00    reference energy to select bands
   IMIX   =      4    mixing-type and parameters
     AMIX     =   0.40;   BMIX     =  1.00
     AMIX_MAG =   1.60;   BMIX_MAG =  1.00
     AMIN     =   0.10
     WC   =   100.;   INIMIX=   1;  MIXPRE=   1;  MAXMIX= -45

 Intra band minimization:
   WEIMIN = 0.0000     energy-eigenvalue tresh-hold
   EBREAK =  0.26E-07  absolut break condition
   DEPER  =   0.30     relativ break condition  

   TIME   =   0.40     timestep for ELM

  volume/ion in A,a.u.               =      51.51       347.59
  Fermi-wavevector in a.u.,A,eV,Ry     =   0.947945  1.791357 12.226201  0.898600
  Thomas-Fermi vector in A             =   2.076087
 
 Write flags
   LWAVE        =      F    write WAVECAR
   LDOWNSAMPLE  =      F    k-point downsampling of WAVECAR
   LCHARG       =      F    write CHGCAR
   LVTOT        =      F    write LOCPOT, total local potential
   LVHAR        =      F    write LOCPOT, Hartree potential only
   LELF         =      F    write electronic localiz. function (ELF)
   LORBIT       =      0    0 simple, 1 ext, 2 COOP (PROOUT), +10 PAW based schemes


 Dipole corrections
   LMONO  =      F    monopole corrections only (constant potential shift)
   LDIPOL =      F    correct potential (dipole corrections)
   IDIPOL =      3    1-x, 2-y, 3-z, 4-all directions 
   EPSILON=  1.0000000 bulk dielectric constant

 Exchange correlation treatment:
   GGA     =    PE    GGA type
   LEXCH   =     8    internal setting for exchange type
   VOSKOWN=      0    Vosko Wilk Nusair interpolation
   LHFCALC =     F    Hartree Fock is set to
   LHFONE  =     F    Hartree Fock one center treatment
   AEXX    =    0.0000 exact exchange contribution

 Linear response parameters
   LEPSILON=     F    determine dielectric tensor
   LRPA    =     F    only Hartree local field effects (RPA)
   LNABLA  =     F    use nabla operator in PAW spheres
   LVEL    =     F    velocity operator in full k-point grid
   LINTERFAST=   F  fast interpolation
   KINTER  =     0    interpolate to denser k-point grid
   CSHIFT  =0.1000    complex shift for real part using Kramers Kronig
   OMEGAMAX=  -1.0    maximum frequency
   DEG_THRESHOLD= 0.2000000E-02 threshold for treating states as degnerate
   RTIME   =   -0.100 relaxation time in fs
  (WPLASMAI=    0.000 imaginary part of plasma frequency in eV, 0.658/RTIME)
   DFIELD  = 0.0000000 0.0000000 0.0000000 field for delta impulse in time
 
 Orbital magnetization related:
   ORBITALMAG=     F  switch on orbital magnetization
   LCHIMAG   =     F  perturbation theory with respect to B field
   DQ        =  0.001000  dq finite difference perturbation B field
   LLRAUG    =     F  two centre corrections for induced B field



--------------------------------------------------------------------------------------------------------


 Static calculation
 charge density and potential will be updated during run
 non-spin polarized calculation
 Variant of blocked Davidson
 Davidson routine will perform the subspace rotation
 perform sub-space diagonalisation
    after iterative eigenvector-optimisation
 modified Broyden-mixing scheme, WC =      100.0
 initial mixing is a Kerker type mixing with AMIX =  0.4000 and BMIX =      1.0000
 Hartree-type preconditioning will be used
 using additional bands           16
 reciprocal scheme for non local part
 use partial core corrections
 calculate Harris-corrections to forces 
   (improved forces if not selfconsistent)
 use gradient corrections 
 use of overlap-Matrix (Vanderbilt PP)
 Methfessel and Paxton  Order N= 1 SIGMA  =   0.20


--------------------------------------------------------------------------------------------------------


  energy-cutoff  :      350.00
  volume of cell :      824.13
      direct lattice vectors                 reciprocal lattice vectors
     5.557859300  0.000000000  0.000000000     0.179925390 -0.103879972  0.000000000
     2.778929650  4.813247345  0.000000000     0.000000000  0.207759944  0.000000000
     0.000000000  0.000000000 30.806959674     0.000000000  0.000000000  0.032460198

  length of vectors
     5.557859300  5.557859300 30.806959674     0.207759944  0.207759944  0.032460198


 
 k-points in units of 2pi/SCALE and weight: KPOINTS created by Atomic Simulation Env
   0.01124534  0.00649250  0.00000000       0.021
   0.00000000  0.01298500  0.00000000       0.010
   0.03373601 -0.00649250  0.00000000       0.021
   0.02249067  0.02596999  0.00000000       0.021
  -0.01124534  0.03246249  0.00000000       0.021
   0.05622668 -0.01947749  0.00000000       0.021
   0.04498135  0.03895499  0.00000000       0.021
  -0.01124534  0.05843248  0.00000000       0.021
   0.07871736 -0.03246249  0.00000000       0.021
   0.06747202  0.05193999  0.00000000       0.021
  -0.01124534  0.08440248  0.00000000       0.021
  -0.07871736  0.05843248  0.00000000       0.021
   0.08996269 -0.14283496  0.00000000       0.021
  -0.01124534  0.11037247  0.00000000       0.021
  -0.05622668  0.04544749  0.00000000       0.021
  -0.06747202 -0.02596999  0.00000000       0.021
  -0.01124534 -0.07141748  0.00000000       0.021
  -0.03373601  0.03246249  0.00000000       0.021
  -0.04498135 -0.01298500  0.00000000       0.021
  -0.01124534 -0.04544749  0.00000000       0.021
  -0.01124534  0.01947749  0.00000000       0.021
  -0.02249067  0.00000000  0.00000000       0.010
   0.03373601  0.01947749  0.00000000       0.021
   0.00000000  0.03895499  0.00000000       0.010
   0.05622668  0.00649250  0.00000000       0.021
   0.02249067  0.05193999  0.00000000       0.021
  -0.03373601  0.04544749  0.00000000       0.021
   0.07871736 -0.00649250  0.00000000       0.021
   0.04498135  0.06492498  0.00000000       0.021
  -0.03373601  0.07141748  0.00000000       0.021
  -0.07871736  0.08440248  0.00000000       0.021
   0.06747202 -0.12984997  0.00000000       0.021
  -0.03373601  0.09738747  0.00000000       0.021
  -0.05622668  0.07141748  0.00000000       0.021
   0.08996269 -0.11686497  0.00000000       0.021
  -0.03373601  0.12335747  0.00000000       0.021
  -0.03373601  0.05843248  0.00000000       0.021
  -0.06747202  0.00000000  0.00000000       0.010
   0.05622668  0.03246249  0.00000000       0.021
   0.00000000  0.06492498  0.00000000       0.010
   0.07871736  0.01947749  0.00000000       0.021
   0.02249067  0.07790998  0.00000000       0.021
  -0.05622668  0.05843248  0.00000000       0.021
  -0.07871736  0.11037247  0.00000000       0.021
   0.04498135 -0.11686497  0.00000000       0.021
  -0.05622668  0.08440248  0.00000000       0.021
  -0.05622668  0.09738747  0.00000000       0.021
   0.06747202 -0.10387997  0.00000000       0.010
   0.07871736  0.04544749  0.00000000       0.021
   0.00000000  0.09089498  0.00000000       0.010
  -0.07871736  0.13634246  0.00000000       0.021
   0.02249067 -0.10387997  0.00000000       0.010
 
 k-points in reciprocal lattice and weights: KPOINTS created by Atomic Simulation Env
   0.06250000  0.06250000  0.00000000       0.021
   0.00000000  0.06250000  0.00000000       0.010
   0.18750000  0.06250000  0.00000000       0.021
   0.12500000  0.18750000  0.00000000       0.021
  -0.06250000  0.12500000  0.00000000       0.021
   0.31250000  0.06250000  0.00000000       0.021
   0.25000000  0.31250000  0.00000000       0.021
  -0.06250000  0.25000000  0.00000000       0.021
   0.43750000  0.06250000  0.00000000       0.021
   0.37500000  0.43750000  0.00000000       0.021
  -0.06250000  0.37500000  0.00000000       0.021
  -0.43750000  0.06250000  0.00000000       0.021
   0.50000000 -0.43750000  0.00000000       0.021
  -0.06250000  0.50000000  0.00000000       0.021
  -0.31250000  0.06250000  0.00000000       0.021
  -0.37500000 -0.31250000  0.00000000       0.021
  -0.06250000 -0.37500000  0.00000000       0.021
  -0.18750000  0.06250000  0.00000000       0.021
  -0.25000000 -0.18750000  0.00000000       0.021
  -0.06250000 -0.25000000  0.00000000       0.021
  -0.06250000  0.06250000  0.00000000       0.021
  -0.12500000 -0.06250000  0.00000000       0.010
   0.18750000  0.18750000  0.00000000       0.021
   0.00000000  0.18750000  0.00000000       0.010
   0.31250000  0.18750000  0.00000000       0.021
   0.12500000  0.31250000  0.00000000       0.021
  -0.18750000  0.12500000  0.00000000       0.021
   0.43750000  0.18750000  0.00000000       0.021
   0.25000000  0.43750000  0.00000000       0.021
  -0.18750000  0.25000000  0.00000000       0.021
  -0.43750000  0.18750000  0.00000000       0.021
   0.37500000 -0.43750000  0.00000000       0.021
  -0.18750000  0.37500000  0.00000000       0.021
  -0.31250000  0.18750000  0.00000000       0.021
   0.50000000 -0.31250000  0.00000000       0.021
  -0.18750000  0.50000000  0.00000000       0.021
  -0.18750000  0.18750000  0.00000000       0.021
  -0.37500000 -0.18750000  0.00000000       0.010
   0.31250000  0.31250000  0.00000000       0.021
   0.00000000  0.31250000  0.00000000       0.010
   0.43750000  0.31250000  0.00000000       0.021
   0.12500000  0.43750000  0.00000000       0.021
  -0.31250000  0.12500000  0.00000000       0.021
  -0.43750000  0.31250000  0.00000000       0.021
   0.25000000 -0.43750000  0.00000000       0.021
  -0.31250000  0.25000000  0.00000000       0.021
  -0.31250000  0.31250000  0.00000000       0.021
   0.37500000 -0.31250000  0.00000000       0.010
   0.43750000  0.43750000  0.00000000       0.021
   0.00000000  0.43750000  0.00000000       0.010
  -0.43750000  0.43750000  0.00000000       0.021
   0.12500000 -0.43750000  0.00000000       0.010
 
 position of ions in fractional coordinates (direct lattice) 
   0.00000000  0.00000000  0.38952237
   0.50000000  0.00000000  0.38952237
   0.00000000  0.50000000  0.38952237
   0.50000000  0.50000000  0.38952237
   0.16666667  0.16666667  0.46468540
   0.66666667  0.16666667  0.46468540
   0.16666667  0.66666667  0.46468540
   0.66666667  0.66666667  0.46468540
   0.33333333  0.33333333  0.53920296
   0.83333333  0.83333333  0.53920296
   0.33333333  0.83333333  0.53920296
   0.00000000  0.00000000  0.61486043
   0.50000000  0.00000000  0.61486043
   0.00000000  0.50000000  0.61486043
   0.50000000  0.50000000  0.61486043
   0.83333333  0.33333333  0.53920296
 
 position of ions in cartesian coordinates  (Angst):
   0.00000000  0.00000000 12.00000000
   2.77892965  0.00000000 12.00000000
   1.38946483  2.40662367 12.00000000
   4.16839448  2.40662367 12.00000000
   1.38946483  0.80220789 14.31554441
   4.16839448  0.80220789 14.31554441
   2.77892965  3.20883156 14.31554441
   5.55785930  3.20883156 14.31554441
   2.77892965  1.60441578 16.61120399
   6.94732413  4.01103945 16.61120399
   4.16839448  4.01103945 16.61120399
   0.00000000  0.00000000 18.94198048
   2.77892965  0.00000000 18.94198048
   1.38946483  2.40662367 18.94198048
   4.16839448  2.40662367 18.94198048
   5.55785930  1.60441578 16.61120399
 


--------------------------------------------------------------------------------------------------------


 k-point  1 :   0.0625 0.0625 0.0000  plane waves:   12325
 k-point  2 :   0.0000 0.0625 0.0000  plane waves:   12325
 k-point  3 :   0.1875 0.0625 0.0000  plane waves:   12294
 k-point  4 :   0.1250 0.1875 0.0000  plane waves:   12294
 k-point  5 :  -0.0625 0.1250 0.0000  plane waves:   12294
 k-point  6 :   0.3125 0.0625 0.0000  plane waves:   12263
 k-point  7 :   0.2500 0.3125 0.0000  plane waves:   12263
 k-point  8 :  -0.0625 0.2500 0.0000  plane waves:   12263
 k-point  9 :   0.4375 0.0625 0.0000  plane waves:   12221
 k-point 10 :   0.3750 0.4375 0.0000  plane waves:   12221
 k-point 11 :  -0.0625 0.3750 0.0000  plane waves:   12221
 k-point 12 :  -0.4375 0.0625 0.0000  plane waves:   12211
 k-point 13 :   0.5000-0.4375 0.0000  plane waves:   12211
 k-point 14 :  -0.0625 0.5000 0.0000  plane waves:   12211
 k-point 15 :  -0.3125 0.0625 0.0000  plane waves:   12242
 k-point 16 :  -0.3750-0.3125 0.0000  plane waves:   12242
 k-point 17 :  -0.0625-0.3750 0.0000  plane waves:   12242
 k-point 18 :  -0.1875 0.0625 0.0000  plane waves:   12280
 k-point 19 :  -0.2500-0.1875 0.0000  plane waves:   12280
 k-point 20 :  -0.0625-0.2500 0.0000  plane waves:   12280
 k-point 21 :  -0.0625 0.0625 0.0000  plane waves:   12329
 k-point 22 :  -0.1250-0.0625 0.0000  plane waves:   12329
 k-point 23 :   0.1875 0.1875 0.0000  plane waves:   12277
 k-point 24 :   0.0000 0.1875 0.0000  plane waves:   12277
 k-point 25 :   0.3125 0.1875 0.0000  plane waves:   12288
 k-point 26 :   0.1250 0.3125 0.0000  plane waves:   12288
 k-point 27 :  -0.1875 0.1250 0.0000  plane waves:   12288
 k-point 28 :   0.4375 0.1875 0.0000  plane waves:   12234
 k-point 29 :   0.2500 0.4375 0.0000  plane waves:   12234
 k-point 30 :  -0.1875 0.2500 0.0000  plane waves:   12234
 k-point 31 :  -0.4375 0.1875 0.0000  plane waves:   12216
 k-point 32 :   0.3750-0.4375 0.0000  plane waves:   12216
 k-point 33 :  -0.1875 0.3750 0.0000  plane waves:   12216
 k-point 34 :  -0.3125 0.1875 0.0000  plane waves:   12215
 k-point 35 :   0.5000-0.3125 0.0000  plane waves:   12215
 k-point 36 :  -0.1875 0.5000 0.0000  plane waves:   12215
 k-point 37 :  -0.1875 0.1875 0.0000  plane waves:   12289
 k-point 38 :  -0.3750-0.1875 0.0000  plane waves:   12289
 k-point 39 :   0.3125 0.3125 0.0000  plane waves:   12275
 k-point 40 :   0.0000 0.3125 0.0000  plane waves:   12275
 k-point 41 :   0.4375 0.3125 0.0000  plane waves:   12239
 k-point 42 :   0.1250 0.4375 0.0000  plane waves:   12239
 k-point 43 :  -0.3125 0.1250 0.0000  plane waves:   12239
 k-point 44 :  -0.4375 0.3125 0.0000  plane waves:   12235
 k-point 45 :   0.2500-0.4375 0.0000  plane waves:   12235
 k-point 46 :  -0.3125 0.2500 0.0000  plane waves:   12235
 k-point 47 :  -0.3125 0.3125 0.0000  plane waves:   12232
 k-point 48 :   0.3750-0.3125 0.0000  plane waves:   12232
 k-point 49 :   0.4375 0.4375 0.0000  plane waves:   12200
 k-point 50 :   0.0000 0.4375 0.0000  plane waves:   12200
 k-point 51 :  -0.4375 0.4375 0.0000  plane waves:   12214
 k-point 52 :   0.1250-0.4375 0.0000  plane waves:   12214

 maximum and minimum number of plane-waves per node :     12329    12200

 maximum number of plane-waves:     12329
 maximum index in each direction: 
   IXMAX=    8   IYMAX=    8   IZMAX=   46
   IXMIN=   -8   IYMIN=   -8   IZMIN=  -46


 serial   3D FFT for wavefunctions
 parallel 3D FFT for charge:
    minimum data exchange during FFTs selected (reduces bandwidth)


 total amount of memory used by VASP MPI-rank0   362189. kBytes
=======================================================================

   base      :      30000. kBytes
   nonl-proj :     280273. kBytes
   fftplans  :       2015. kBytes
   grid      :       7641. kBytes
   one-center:        248. kBytes
   wavefun   :      42012. kBytes
 
     INWAV:  cpu time    0.0000: real time    0.0000
 Broyden mixing: mesh for mixing (old mesh)
   NGX = 17   NGY = 17   NGZ = 93
  (NGX  = 56   NGY  = 56   NGZ  =288)
  gives a total of  26877 points

 initial charge density was supplied:
 charge density of overlapping atoms calculated
 number of electron     160.0000000 magnetization 
 keeping initial charge density in first step


--------------------------------------------------------------------------------------------------------


 Maximum index for augmentation-charges          824 (set IRDMAX)


--------------------------------------------------------------------------------------------------------


 First call to EWALD:  gamma=   0.189
 Maximum number of real-space cells 5x 5x 1
 Maximum number of reciprocal cells 2x 2x 8

    FEWALD:  cpu time    0.0015: real time    0.0015


--------------------------------------- Iteration      1(   1)  ---------------------------------------


    POTLOK:  cpu time    0.0193: real time    0.0251
    SETDIJ:  cpu time    0.0022: real time    0.0022
     EDDAV:  cpu time    9.0054: real time    9.0071
       DOS:  cpu time    0.0018: real time    0.0018
    --------------------------------------------
      LOOP:  cpu time    9.0287: real time    9.0362

 eigenvalue-minimisations  :  9984
 total energy-change (2. order) : 0.9774802E+03  (-0.5546887E+04)
 number of electron     160.0000000 magnetization 
 augmentation part      160.0000000 magnetization 

 Free energy of the ion-electron system (eV)
  ---------------------------------------------------
  alpha Z        PSCENC =       303.52543553
  Ewald energy   TEWEN  =     98869.78256194
  -Hartree energ DENC   =   -110941.68405955
  -exchange      EXHF   =         0.00000000
  -V(xc)+E(xc)   XCENC  =        46.22674298
  PAW double counting   =     11171.21661038   -10711.84633960
  entropy T*S    EENTRO =        -0.00524021
  eigenvalues    EBANDS =       546.57029310
  atomic energy  EATOM  =     11693.69420960
  Solvation  Ediel_sol  =         0.00000000
  ---------------------------------------------------
  free energy    TOTEN  =       977.48021417 eV

  energy without entropy =      977.48545439  energy(sigma->0) =      977.48196091


--------------------------------------------------------------------------------------------------------




--------------------------------------- Iteration      1(   2)  ---------------------------------------


     EDDAV:  cpu time   12.8489: real time   12.8518
       DOS:  cpu time    0.0017: real time    0.0017
    --------------------------------------------
      LOOP:  cpu time   12.8506: real time   12.8535

 eigenvalue-minimisations  : 14520
 total energy-change (2. order) :-0.1015670E+04  (-0.9834176E+03)
 number of electron     160.0000000 magnetization 
 augmentation part      160.0000000 magnetization 

 Free energy of the ion-electron system (eV)
  ---------------------------------------------------
  alpha Z        PSCENC =       303.52543553
  Ewald energy   TEWEN  =     98869.78256194
  -Hartree energ DENC   =   -110941.68405955
  -exchange      EXHF   =         0.00000000
  -V(xc)+E(xc)   XCENC  =        46.22674298
  PAW double counting   =     11171.21661038   -10711.84633960
  entropy T*S    EENTRO =         0.00840167
  eigenvalues    EBANDS =      -469.11325544
  atomic energy  EATOM  =     11693.69420960
  Solvation  Ediel_sol  =         0.00000000
  ---------------------------------------------------
  free energy    TOTEN  =       -38.18969249 eV

  energy without entropy =      -38.19809416  energy(sigma->0) =      -38.19249304


--------------------------------------------------------------------------------------------------------




--------------------------------------- Iteration      1(   3)  ---------------------------------------


     EDDAV:  cpu time   11.0273: real time   11.0288
       DOS:  cpu time    0.0017: real time    0.0017
    --------------------------------------------
      LOOP:  cpu time   11.0291: real time   11.0305

 eigenvalue-minimisations  : 12408
 total energy-change (2. order) :-0.5853030E+02  (-0.5658350E+02)
 number of electron     160.0000000 magnetization 
 augmentation part      160.0000000 magnetization 

 Free energy of the ion-electron system (eV)
  ---------------------------------------------------
  alpha Z        PSCENC =       303.52543553
  Ewald energy   TEWEN  =     98869.78256194
  -Hartree energ DENC   =   -110941.68405955
  -exchange      EXHF   =         0.00000000
  -V(xc)+E(xc)   XCENC  =        46.22674298
  PAW double counting   =     11171.21661038   -10711.84633960
  entropy T*S    EENTRO =        -0.00647243
  eigenvalues    EBANDS =      -527.62867869
  atomic energy  EATOM  =     11693.69420960
  Solvation  Ediel_sol  =         0.00000000
  ---------------------------------------------------
  free energy    TOTEN  =       -96.71998984 eV

  energy without entropy =      -96.71351741  energy(sigma->0) =      -96.71783236


--------------------------------------------------------------------------------------------------------




--------------------------------------- Iteration      1(   4)  ---------------------------------------


     EDDAV:  cpu time   12.6005: real time   12.6031
       DOS:  cpu time    0.0018: real time    0.0018
    --------------------------------------------
      LOOP:  cpu time   12.6023: real time   12.6049

 eigenvalue-minimisations  : 14376
 total energy-change (2. order) :-0.1274316E+01  (-0.1266400E+01)
 number of electron     160.0000000 magnetization 
 augmentation part      160.0000000 magnetization 

 Free energy of the ion-electron system (eV)
  ---------------------------------------------------
  alpha Z        PSCENC =       303.52543553
  Ewald energy   TEWEN  =     98869.78256194
  -Hartree energ DENC   =   -110941.68405955
  -exchange      EXHF   =         0.00000000
  -V(xc)+E(xc)   XCENC  =        46.22674298
  PAW double counting   =     11171.21661038   -10711.84633960
  entropy T*S    EENTRO =        -0.00737865
  eigenvalues    EBANDS =      -528.90208857
  atomic energy  EATOM  =     11693.69420960
  Solvation  Ediel_sol  =         0.00000000
  ---------------------------------------------------
  free energy    TOTEN  =       -97.99430594 eV

  energy without entropy =      -97.98692729  energy(sigma->0) =      -97.99184639


--------------------------------------------------------------------------------------------------------




--------------------------------------- Iteration      1(   5)  ---------------------------------------


     EDDAV:  cpu time   13.1569: real time   13.1643
       DOS:  cpu time    0.0018: real time    0.0018
    CHARGE:  cpu time    0.3176: real time    0.3177
    MIXING:  cpu time    0.0010: real time    0.0011
    --------------------------------------------
      LOOP:  cpu time   13.4773: real time   13.4848

 eigenvalue-minimisations  : 14976
 total energy-change (2. order) :-0.3078588E-01  (-0.3076013E-01)
 number of electron     160.0000079 magnetization 
 augmentation part       46.9955896 magnetization 

 Broyden mixing:
  rms(total) = 0.41726E+01    rms(broyden)= 0.41725E+01
  rms(prec ) = 0.42038E+01
  weight for this iteration     100.00

 Free energy of the ion-electron system (eV)
  ---------------------------------------------------
  alpha Z        PSCENC =       303.52543553
  Ewald energy   TEWEN  =     98869.78256194
  -Hartree energ DENC   =   -110941.68405955
  -exchange      EXHF   =         0.00000000
  -V(xc)+E(xc)   XCENC  =        46.22674298
  PAW double counting   =     11171.21661038   -10711.84633960
  entropy T*S    EENTRO =        -0.00735888
  eigenvalues    EBANDS =      -528.93289423
  atomic energy  EATOM  =     11693.69420960
  Solvation  Ediel_sol  =         0.00000000
  ---------------------------------------------------
  free energy    TOTEN  =       -98.02509182 eV

  energy without entropy =      -98.01773294  energy(sigma->0) =      -98.02263886


--------------------------------------------------------------------------------------------------------




--------------------------------------- Iteration      1(   6)  ---------------------------------------


    POTLOK:  cpu time    0.0174: real time    0.0183
    SETDIJ:  cpu time    0.0023: real time    0.0023
     EDDAV:  cpu time   10.7890: real time   10.7905
       DOS:  cpu time    0.0017: real time    0.0017
    CHARGE:  cpu time    0.3176: real time    0.3176
    MIXING:  cpu time    0.0008: real time    0.0009
    --------------------------------------------
      LOOP:  cpu time   11.1288: real time   11.1313

 eigenvalue-minimisations  : 12192
 total energy-change (2. order) : 0.2736994E+01  (-0.3536325E+01)
 number of electron     160.0000070 magnetization 
 augmentation part       49.5377505 magnetization 

 Broyden mixing:
  rms(total) = 0.33613E+01    rms(broyden)= 0.33612E+01
  rms(prec ) = 0.36584E+01
  weight for this iteration     100.00

 eigenvalues of (default mixing * dielectric matrix)
  average eigenvalue GAMMA=   1.0243
  1.0243

 Free energy of the ion-electron system (eV)
  ---------------------------------------------------
  alpha Z        PSCENC =       303.52543553
  Ewald energy   TEWEN  =     98869.78256194
  -Hartree energ DENC   =   -110741.64405812
  -exchange      EXHF   =         0.00000000
  -V(xc)+E(xc)   XCENC  =        42.08688493
  PAW double counting   =     12325.16478973   -11888.97118053
  entropy T*S    EENTRO =         0.00393916
  eigenvalues    EBANDS =      -698.93068000
  atomic energy  EATOM  =     11693.69420960
  Solvation  Ediel_sol  =         0.00000000
  ---------------------------------------------------
  free energy    TOTEN  =       -95.28809776 eV

  energy without entropy =      -95.29203692  energy(sigma->0) =      -95.28941081


--------------------------------------------------------------------------------------------------------




--------------------------------------- Iteration      1(   7)  ---------------------------------------


    POTLOK:  cpu time    0.0165: real time    0.0178
    SETDIJ:  cpu time    0.0021: real time    0.0021
     EDDAV:  cpu time   13.0363: real time   13.0379
       DOS:  cpu time    0.0016: real time    0.0016
    CHARGE:  cpu time    0.3177: real time    0.3177
    MIXING:  cpu time    0.0006: real time    0.0006
    --------------------------------------------
      LOOP:  cpu time   13.3749: real time   13.3778

 eigenvalue-minimisations  : 15024
 total energy-change (2. order) :-0.5310234E+02  (-0.5472105E+02)
 number of electron     160.0000083 magnetization 
 augmentation part       47.6156374 magnetization 

 Broyden mixing:
  rms(total) = 0.59490E+01    rms(broyden)= 0.59489E+01
  rms(prec ) = 0.74727E+01
  weight for this iteration     100.00

 eigenvalues of (default mixing * dielectric matrix)
  average eigenvalue GAMMA=   0.9150
  1.6752  0.1549

 Free energy of the ion-electron system (eV)
  ---------------------------------------------------
  alpha Z        PSCENC =       303.52543553
  Ewald energy   TEWEN  =     98869.78256194
  -Hartree energ DENC   =   -110851.83607565
  -exchange      EXHF   =         0.00000000
  -V(xc)+E(xc)   XCENC  =        41.15356349
  PAW double counting   =     12915.76014344   -12486.72285562
  entropy T*S    EENTRO =        -0.01598520
  eigenvalues    EBANDS =      -633.73143620
  atomic energy  EATOM  =     11693.69420960
  Solvation  Ediel_sol  =         0.00000000
  ---------------------------------------------------
  free energy    TOTEN  =      -148.39043867 eV

  energy without entropy =     -148.37445348  energy(sigma->0) =     -148.38511027


--------------------------------------------------------------------------------------------------------




--------------------------------------- Iteration      1(   8)  ---------------------------------------


    POTLOK:  cpu time    0.0160: real time    0.0160
    SETDIJ:  cpu time    0.0021: real time    0.0021
     EDDAV:  cpu time   13.7545: real time   13.7563
       DOS:  cpu time    0.0018: real time    0.0018
    CHARGE:  cpu time    0.3177: real time    0.3177
    MIXING:  cpu time    0.0007: real time    0.0007
    --------------------------------------------
      LOOP:  cpu time   14.0928: real time   14.0946

 eigenvalue-minimisations  : 15768
 total energy-change (2. order) : 0.2620950E+02  (-0.2596037E+02)
 number of electron     160.0000098 magnetization 
 augmentation part       49.0254452 magnetization 

 Broyden mixing:
  rms(total) = 0.45163E+01    rms(broyden)= 0.45162E+01
  rms(prec ) = 0.50656E+01
  weight for this iteration     100.00

 eigenvalues of (default mixing * dielectric matrix)
  average eigenvalue GAMMA=   0.8571
  2.1388  0.2162  0.2162

 Free energy of the ion-electron system (eV)
  ---------------------------------------------------
  alpha Z        PSCENC =       303.52543553
  Ewald energy   TEWEN  =     98869.78256194
  -Hartree energ DENC   =   -110897.15450428
  -exchange      EXHF   =         0.00000000
  -V(xc)+E(xc)   XCENC  =        40.13932070
  PAW double counting   =     13643.20811693   -13223.88927569
  entropy T*S    EENTRO =        -0.00760589
  eigenvalues    EBANDS =      -551.47920132
  atomic energy  EATOM  =     11693.69420960
  Solvation  Ediel_sol  =         0.00000000
  ---------------------------------------------------
  free energy    TOTEN  =      -122.18094248 eV

  energy without entropy =     -122.17333660  energy(sigma->0) =     -122.17840719


--------------------------------------------------------------------------------------------------------




--------------------------------------- Iteration      1(   9)  ---------------------------------------


    POTLOK:  cpu time    0.0171: real time    0.0171
    SETDIJ:  cpu time    0.0023: real time    0.0023
     EDDAV:  cpu time   14.0792: real time   14.0810
       DOS:  cpu time    0.0019: real time    0.0019
    CHARGE:  cpu time    0.3177: real time    0.3178
    MIXING:  cpu time    0.0007: real time    0.0007
    --------------------------------------------
      LOOP:  cpu time   14.4189: real time   14.4207

 eigenvalue-minimisations  : 16272
 total energy-change (2. order) : 0.8151819E+01  (-0.1100447E+02)
 number of electron     160.0000088 magnetization 
 augmentation part       50.0371185 magnetization 

 Broyden mixing:
  rms(total) = 0.33595E+01    rms(broyden)= 0.33593E+01
  rms(prec ) = 0.45981E+01
  weight for this iteration     100.00

 eigenvalues of (default mixing * dielectric matrix)
  average eigenvalue GAMMA=   0.8375
  2.1379  0.7630  0.2937  0.1552

 Free energy of the ion-electron system (eV)
  ---------------------------------------------------
  alpha Z        PSCENC =       303.52543553
  Ewald energy   TEWEN  =     98869.78256194
  -Hartree energ DENC   =   -110722.44763209
  -exchange      EXHF   =         0.00000000
  -V(xc)+E(xc)   XCENC  =        39.46375452
  PAW double counting   =     14222.28155242   -13810.54216216
  entropy T*S    EENTRO =        -0.00788665
  eigenvalues    EBANDS =      -709.77895685
  atomic energy  EATOM  =     11693.69420960
  Solvation  Ediel_sol  =         0.00000000
  ---------------------------------------------------
  free energy    TOTEN  =      -114.02912374 eV

  energy without entropy =     -114.02123709  energy(sigma->0) =     -114.02649486


--------------------------------------------------------------------------------------------------------




--------------------------------------- Iteration      1(  10)  ---------------------------------------


    POTLOK:  cpu time    0.0168: real time    0.0233
    SETDIJ:  cpu time    0.0021: real time    0.0021
     EDDAV:  cpu time   12.8377: real time   12.8395
       DOS:  cpu time    0.0019: real time    0.0019
    CHARGE:  cpu time    0.3182: real time    0.3182
    MIXING:  cpu time    0.0007: real time    0.0007
    --------------------------------------------
      LOOP:  cpu time   13.1773: real time   13.1856

 eigenvalue-minimisations  : 14712
 total energy-change (2. order) : 0.1963387E+02  (-0.1419501E+02)
 number of electron     160.0000078 magnetization 
 augmentation part       50.4084208 magnetization 

 Broyden mixing:
  rms(total) = 0.16193E+01    rms(broyden)= 0.16191E+01
  rms(prec ) = 0.17328E+01
  weight for this iteration     100.00

 eigenvalues of (default mixing * dielectric matrix)
  average eigenvalue GAMMA=   0.7242
  2.1044  0.8016  0.2812  0.2812  0.1529

 Free energy of the ion-electron system (eV)
  ---------------------------------------------------
  alpha Z        PSCENC =       303.52543553
  Ewald energy   TEWEN  =     98869.78256194
  -Hartree energ DENC   =   -110745.60112516
  -exchange      EXHF   =         0.00000000
  -V(xc)+E(xc)   XCENC  =        40.33964427
  PAW double counting   =     14401.00670481   -13987.44089308
  entropy T*S    EENTRO =         0.00589290
  eigenvalues    EBANDS =      -669.70768855
  atomic energy  EATOM  =     11693.69420960
  Solvation  Ediel_sol  =         0.00000000
  ---------------------------------------------------
  free energy    TOTEN  =       -94.39525773 eV

  energy without entropy =      -94.40115063  energy(sigma->0) =      -94.39722203


--------------------------------------------------------------------------------------------------------




--------------------------------------- Iteration      1(  11)  ---------------------------------------


    POTLOK:  cpu time    0.0169: real time    0.0182
    SETDIJ:  cpu time    0.0021: real time    0.0021
     EDDAV:  cpu time   12.3700: real time   12.3716
       DOS:  cpu time    0.0017: real time    0.0017
    CHARGE:  cpu time    0.3173: real time    0.3173
    MIXING:  cpu time    0.0007: real time    0.0007
    --------------------------------------------
      LOOP:  cpu time   12.7087: real time   12.7117

 eigenvalue-minimisations  : 14280
 total energy-change (2. order) : 0.1714643E+01  (-0.2406795E+01)
 number of electron     160.0000078 magnetization 
 augmentation part       50.2239353 magnetization 

 Broyden mixing:
  rms(total) = 0.11369E+01    rms(broyden)= 0.11368E+01
  rms(prec ) = 0.14431E+01
  weight for this iteration     100.00

 eigenvalues of (default mixing * dielectric matrix)
  average eigenvalue GAMMA=   0.7168
  2.1236  0.8968  0.4476  0.4476  0.1592  0.2263

 Free energy of the ion-electron system (eV)
  ---------------------------------------------------
  alpha Z        PSCENC =       303.52543553
  Ewald energy   TEWEN  =     98869.78256194
  -Hartree energ DENC   =   -110746.61350275
  -exchange      EXHF   =         0.00000000
  -V(xc)+E(xc)   XCENC  =        40.32730962
  PAW double counting   =     14428.75759605   -14014.83523744
  entropy T*S    EENTRO =        -0.03622196
  eigenvalues    EBANDS =      -667.28276521
  atomic energy  EATOM  =     11693.69420960
  Solvation  Ediel_sol  =         0.00000000
  ---------------------------------------------------
  free energy    TOTEN  =       -92.68061461 eV

  energy without entropy =      -92.64439265  energy(sigma->0) =      -92.66854063


--------------------------------------------------------------------------------------------------------




--------------------------------------- Iteration      1(  12)  ---------------------------------------


    POTLOK:  cpu time    0.0168: real time    0.0180
    SETDIJ:  cpu time    0.0021: real time    0.0021
     EDDAV:  cpu time   13.4733: real time   13.4749
       DOS:  cpu time    0.0017: real time    0.0017
    CHARGE:  cpu time    0.3178: real time    0.3178
    MIXING:  cpu time    0.0009: real time    0.0009
    --------------------------------------------
      LOOP:  cpu time   13.8126: real time   13.8155

 eigenvalue-minimisations  : 15576
 total energy-change (2. order) : 0.6754682E+00  (-0.9647874E+00)
 number of electron     160.0000082 magnetization 
 augmentation part       50.1860317 magnetization 

 Broyden mixing:
  rms(total) = 0.56433E+00    rms(broyden)= 0.56426E+00
  rms(prec ) = 0.60640E+00
  weight for this iteration     100.00

 eigenvalues of (default mixing * dielectric matrix)
  average eigenvalue GAMMA=   0.6506
  2.0628  0.7143  0.7143  0.3398  0.3398  0.1589  0.2247

 Free energy of the ion-electron system (eV)
  ---------------------------------------------------
  alpha Z        PSCENC =       303.52543553
  Ewald energy   TEWEN  =     98869.78256194
  -Hartree energ DENC   =   -110750.72535474
  -exchange      EXHF   =         0.00000000
  -V(xc)+E(xc)   XCENC  =        40.25405418
  PAW double counting   =     14434.43800162   -14020.98022344
  entropy T*S    EENTRO =        -0.00997276
  eigenvalues    EBANDS =      -661.98385839
  atomic energy  EATOM  =     11693.69420960
  Solvation  Ediel_sol  =         0.00000000
  ---------------------------------------------------
  free energy    TOTEN  =       -92.00514646 eV

  energy without entropy =      -91.99517370  energy(sigma->0) =      -92.00182221


--------------------------------------------------------------------------------------------------------




--------------------------------------- Iteration      1(  13)  ---------------------------------------


    POTLOK:  cpu time    0.0170: real time    0.0170
    SETDIJ:  cpu time    0.0021: real time    0.0021
     EDDAV:  cpu time   12.0060: real time   12.0075
       DOS:  cpu time    0.0018: real time    0.0018
    CHARGE:  cpu time    0.3177: real time    0.3177
    MIXING:  cpu time    0.0009: real time    0.0009
    --------------------------------------------
      LOOP:  cpu time   12.3455: real time   12.3470

 eigenvalue-minimisations  : 13800
 total energy-change (2. order) : 0.1238895E+00  (-0.7681538E-01)
 number of electron     160.0000082 magnetization 
 augmentation part       50.1931122 magnetization 

 Broyden mixing:
  rms(total) = 0.44441E+00    rms(broyden)= 0.44440E+00
  rms(prec ) = 0.50435E+00
  weight for this iteration     100.00

 eigenvalues of (default mixing * dielectric matrix)
  average eigenvalue GAMMA=   0.6414
  2.0349  0.8101  0.8101  0.3751  0.3751  0.3505  0.1590  0.2168

 Free energy of the ion-electron system (eV)
  ---------------------------------------------------
  alpha Z        PSCENC =       303.52543553
  Ewald energy   TEWEN  =     98869.78256194
  -Hartree energ DENC   =   -110746.72700306
  -exchange      EXHF   =         0.00000000
  -V(xc)+E(xc)   XCENC  =        40.29259467
  PAW double counting   =     14380.33537933   -13966.51211839
  entropy T*S    EENTRO =        -0.01168975
  eigenvalues    EBANDS =      -666.26062681
  atomic energy  EATOM  =     11693.69420960
  Solvation  Ediel_sol  =         0.00000000
  ---------------------------------------------------
  free energy    TOTEN  =       -91.88125694 eV

  energy without entropy =      -91.86956719  energy(sigma->0) =      -91.87736036


--------------------------------------------------------------------------------------------------------




--------------------------------------- Iteration      1(  14)  ---------------------------------------


    POTLOK:  cpu time    0.0175: real time    0.0175
    SETDIJ:  cpu time    0.0023: real time    0.0023
     EDDAV:  cpu time   11.9819: real time   11.9832
       DOS:  cpu time    0.0017: real time    0.0017
    CHARGE:  cpu time    0.3174: real time    0.3174
    MIXING:  cpu time    0.0009: real time    0.0009
    --------------------------------------------
      LOOP:  cpu time   12.3217: real time   12.3230

 eigenvalue-minimisations  : 13776
 total energy-change (2. order) : 0.6339734E-01  (-0.1998951E-01)
 number of electron     160.0000081 magnetization 
 augmentation part       50.1938753 magnetization 

 Broyden mixing:
  rms(total) = 0.39061E+00    rms(broyden)= 0.39060E+00
  rms(prec ) = 0.41008E+00
  weight for this iteration     100.00

 eigenvalues of (default mixing * dielectric matrix)
  average eigenvalue GAMMA=   0.7686
  2.1595  1.2950  1.2950  0.5761  0.4473  0.4473  0.1589  0.3149  0.2237

 Free energy of the ion-electron system (eV)
  ---------------------------------------------------
  alpha Z        PSCENC =       303.52543553
  Ewald energy   TEWEN  =     98869.78256194
  -Hartree energ DENC   =   -110745.78580238
  -exchange      EXHF   =         0.00000000
  -V(xc)+E(xc)   XCENC  =        40.32371664
  PAW double counting   =     14344.07399217   -13930.01085262
  entropy T*S    EENTRO =        -0.01397735
  eigenvalues    EBANDS =      -667.40714314
  atomic energy  EATOM  =     11693.69420960
  Solvation  Ediel_sol  =         0.00000000
  ---------------------------------------------------
  free energy    TOTEN  =       -91.81785960 eV

  energy without entropy =      -91.80388226  energy(sigma->0) =      -91.81320049


--------------------------------------------------------------------------------------------------------




--------------------------------------- Iteration      1(  15)  ---------------------------------------


    POTLOK:  cpu time    0.0172: real time    0.0234
    SETDIJ:  cpu time    0.0021: real time    0.0021
     EDDAV:  cpu time   11.7253: real time   11.7266
       DOS:  cpu time    0.0016: real time    0.0016
    CHARGE:  cpu time    0.3182: real time    0.3182
    MIXING:  cpu time    0.0009: real time    0.0009
    --------------------------------------------
      LOOP:  cpu time   12.0653: real time   12.0729

 eigenvalue-minimisations  : 13488
 total energy-change (2. order) :-0.9586324E-02  (-0.8754966E-01)
 number of electron     160.0000079 magnetization 
 augmentation part       50.1839090 magnetization 

 Broyden mixing:
  rms(total) = 0.31301E+00    rms(broyden)= 0.31299E+00
  rms(prec ) = 0.39574E+00
  weight for this iteration     100.00

 eigenvalues of (default mixing * dielectric matrix)
  average eigenvalue GAMMA=   0.8074
  2.1916  1.5330  1.5330  0.7942  0.4518  0.4518  0.4089  0.1589  0.3288  0.2222

 Free energy of the ion-electron system (eV)
  ---------------------------------------------------
  alpha Z        PSCENC =       303.52543553
  Ewald energy   TEWEN  =     98869.78256194
  -Hartree energ DENC   =   -110750.76064105
  -exchange      EXHF   =         0.00000000
  -V(xc)+E(xc)   XCENC  =        40.41871097
  PAW double counting   =     14257.09222374   -13842.73896662
  entropy T*S    EENTRO =        -0.01638704
  eigenvalues    EBANDS =      -662.82459300
  atomic energy  EATOM  =     11693.69420960
  Solvation  Ediel_sol  =         0.00000000
  ---------------------------------------------------
  free energy    TOTEN  =       -91.82744592 eV

  energy without entropy =      -91.81105888  energy(sigma->0) =      -91.82198358


--------------------------------------------------------------------------------------------------------




--------------------------------------- Iteration      1(  16)  ---------------------------------------


    POTLOK:  cpu time    0.0173: real time    0.0187
    SETDIJ:  cpu time    0.0023: real time    0.0023
     EDDAV:  cpu time   10.9688: real time   10.9702
       DOS:  cpu time    0.0018: real time    0.0018
    CHARGE:  cpu time    0.3181: real time    0.3181
    MIXING:  cpu time    0.0011: real time    0.0011
    --------------------------------------------
      LOOP:  cpu time   11.3095: real time   11.3122

 eigenvalue-minimisations  : 12360
 total energy-change (2. order) : 0.5508699E-01  (-0.3353914E-01)
 number of electron     160.0000079 magnetization 
 augmentation part       50.1417396 magnetization 

 Broyden mixing:
  rms(total) = 0.10894E+00    rms(broyden)= 0.10893E+00
  rms(prec ) = 0.12641E+00
  weight for this iteration     100.00

 eigenvalues of (default mixing * dielectric matrix)
  average eigenvalue GAMMA=   0.7630
  1.9717  1.6290  1.6290  0.7254  0.4662  0.4662  0.1589  0.2225  0.4351  0.3917
  0.2975

 Free energy of the ion-electron system (eV)
  ---------------------------------------------------
  alpha Z        PSCENC =       303.52543553
  Ewald energy   TEWEN  =     98869.78256194
  -Hartree energ DENC   =   -110757.97307510
  -exchange      EXHF   =         0.00000000
  -V(xc)+E(xc)   XCENC  =        40.52865739
  PAW double counting   =     14185.16416323   -13770.33328153
  entropy T*S    EENTRO =        -0.01383948
  eigenvalues    EBANDS =      -656.14719051
  atomic energy  EATOM  =     11693.69420960
  Solvation  Ediel_sol  =         0.00000000
  ---------------------------------------------------
  free energy    TOTEN  =       -91.77235893 eV

  energy without entropy =      -91.75851945  energy(sigma->0) =      -91.76774577


--------------------------------------------------------------------------------------------------------




--------------------------------------- Iteration      1(  17)  ---------------------------------------


    POTLOK:  cpu time    0.0177: real time    0.0186
    SETDIJ:  cpu time    0.0021: real time    0.0021
     EDDAV:  cpu time   12.1408: real time   12.1424
       DOS:  cpu time    0.0018: real time    0.0018
    CHARGE:  cpu time    0.3177: real time    0.3177
    MIXING:  cpu time    0.0012: real time    0.0012
    --------------------------------------------
      LOOP:  cpu time   12.4813: real time   12.4838

 eigenvalue-minimisations  : 13848
 total energy-change (2. order) : 0.1064674E-01  (-0.4735665E-02)
 number of electron     160.0000080 magnetization 
 augmentation part       50.1236184 magnetization 

 Broyden mixing:
  rms(total) = 0.52449E-01    rms(broyden)= 0.52442E-01
  rms(prec ) = 0.55659E-01
  weight for this iteration     100.00

 eigenvalues of (default mixing * dielectric matrix)
  average eigenvalue GAMMA=   0.7619
  2.0505  1.5308  1.5308  0.8663  0.5900  0.5900  0.4653  0.4653  0.1589  0.2223
  0.3362  0.3362

 Free energy of the ion-electron system (eV)
  ---------------------------------------------------
  alpha Z        PSCENC =       303.52543553
  Ewald energy   TEWEN  =     98869.78256194
  -Hartree energ DENC   =   -110759.42118875
  -exchange      EXHF   =         0.00000000
  -V(xc)+E(xc)   XCENC  =        40.56179160
  PAW double counting   =     14175.57688935   -13760.57455779
  entropy T*S    EENTRO =        -0.01514270
  eigenvalues    EBANDS =      -654.89171098
  atomic energy  EATOM  =     11693.69420960
  Solvation  Ediel_sol  =         0.00000000
  ---------------------------------------------------
  free energy    TOTEN  =       -91.76171219 eV

  energy without entropy =      -91.74656949  energy(sigma->0) =      -91.75666462


--------------------------------------------------------------------------------------------------------




--------------------------------------- Iteration      1(  18)  ---------------------------------------


    POTLOK:  cpu time    0.0172: real time    0.0172
    SETDIJ:  cpu time    0.0021: real time    0.0021
     EDDAV:  cpu time   10.7715: real time   10.7728
       DOS:  cpu time    0.0016: real time    0.0016
    CHARGE:  cpu time    0.3180: real time    0.3181
    MIXING:  cpu time    0.0013: real time    0.0013
    --------------------------------------------
      LOOP:  cpu time   11.1117: real time   11.1131

 eigenvalue-minimisations  : 12216
 total energy-change (2. order) : 0.1666706E-02  (-0.1213658E-02)
 number of electron     160.0000080 magnetization 
 augmentation part       50.1133228 magnetization 

 Broyden mixing:
  rms(total) = 0.51043E-01    rms(broyden)= 0.51041E-01
  rms(prec ) = 0.57791E-01
  weight for this iteration     100.00

 eigenvalues of (default mixing * dielectric matrix)
  average eigenvalue GAMMA=   0.8096
  2.3288  1.6387  1.6387  0.9761  0.9761  0.6428  0.4549  0.4549  0.1589  0.2224
  0.3618  0.3618  0.3093

 Free energy of the ion-electron system (eV)
  ---------------------------------------------------
  alpha Z        PSCENC =       303.52543553
  Ewald energy   TEWEN  =     98869.78256194
  -Hartree energ DENC   =   -110761.31812696
  -exchange      EXHF   =         0.00000000
  -V(xc)+E(xc)   XCENC  =        40.57541249
  PAW double counting   =     14188.71446237   -13773.68113501
  entropy T*S    EENTRO =        -0.01347576
  eigenvalues    EBANDS =      -653.03938969
  atomic energy  EATOM  =     11693.69420960
  Solvation  Ediel_sol  =         0.00000000
  ---------------------------------------------------
  free energy    TOTEN  =       -91.76004548 eV

[...]
     80      -0.9335      1.50520
     81      -0.8313      0.67561
     82      -0.8070      0.49208
     83      -0.6873     -0.02808
     84      -0.6055     -0.06824
     85      -0.5125     -0.02968
     86      -0.3854     -0.00321
     87       1.0794     -0.00000
     88       1.1526     -0.00000
     89       1.2334     -0.00000
     90       1.7302     -0.00000
     91       1.7534     -0.00000
     92       1.8778     -0.00000
     93       2.7963     -0.00000
     94       2.9018     -0.00000
     95       3.2455     -0.00000
     96       4.3355     -0.00000

 k-point    51 :      -0.4375    0.4375    0.0000
  band No.  band energies     occupation 
      1      -8.3987      2.00000
      2      -8.3397      2.00000
      3      -7.3312      2.00000
      4      -7.3059      2.00000
      5      -6.9468      2.00000
      6      -6.6790      2.00000
      7      -6.5874      2.00000
      8      -6.5124      2.00000
      9      -6.4737      2.00000
     10      -6.3454      2.00000
     11      -6.3079      2.00000
     12      -6.2456      2.00000
     13      -6.1924      2.00000
     14      -6.0535      2.00000
     15      -5.8817      2.00000
     16      -5.8417      2.00000
     17      -5.7794      2.00000
     18      -5.7475      2.00000
     19      -5.5890      2.00000
     20      -5.5221      2.00000
     21      -5.4178      2.00000
     22      -5.3539      2.00000
     23      -5.2529      2.00000
     24      -5.1857      2.00000
     25      -5.1695      2.00000
     26      -5.1225      2.00000
     27      -5.0697      2.00000
     28      -5.0382      2.00000
     29      -4.7549      2.00000
     30      -4.6623      2.00000
     31      -4.6307      2.00000
     32      -4.5768      2.00000
     33      -4.5275      2.00000
     34      -4.4827      2.00000
     35      -4.3368      2.00000
     36      -4.3265      2.00000
     37      -4.1760      2.00000
     38      -4.1351      2.00000
     39      -4.1177      2.00000
     40      -4.0560      2.00000
     41      -3.9863      2.00000
     42      -3.8361      2.00000
     43      -3.7986      2.00000
     44      -3.7938      2.00000
     45      -3.7252      2.00000
     46      -3.7124      2.00000
     47      -3.6792      2.00000
     48      -3.6461      2.00000
     49      -3.5819      2.00000
     50      -3.4888      2.00000
     51      -3.4174      2.00000
     52      -3.3353      2.00000
     53      -3.2268      2.00000
     54      -3.1253      2.00000
     55      -2.9741      2.00000
     56      -2.9239      2.00000
     57      -2.8934      2.00000
     58      -2.8537      2.00000
     59      -2.7213      2.00000
     60      -2.6284      2.00000
     61      -2.4996      2.00000
     62      -2.4727      2.00000
     63      -2.3601      2.00000
     64      -2.2665      2.00000
     65      -2.2382      2.00000
     66      -2.1798      2.00000
     67      -2.0978      2.00000
     68      -2.0820      2.00000
     69      -1.9983      2.00000
     70      -1.9194      2.00000
     71      -1.8494      2.00000
     72      -1.7722      2.00000
     73      -1.7274      2.00000
     74      -1.6239      2.00000
     75      -1.4395      2.00043
     76      -1.3115      2.00779
     77      -1.2902      2.01147
     78      -1.1968      2.04321
     79      -1.0787      2.05781
     80      -1.0075      1.90925
     81      -0.9253      1.44579
     82      -0.8212      0.59697
     83      -0.7892      0.37173
     84      -0.6206     -0.07074
     85      -0.4845     -0.01993
     86      -0.4389     -0.00929
     87       0.1543     -0.00000
     88       0.5295     -0.00000
     89       1.4395     -0.00000
     90       1.4881     -0.00000
     91       1.6029     -0.00000
     92       2.2658     -0.00000
     93       3.1935     -0.00000
     94       3.3841     -0.00000
     95       3.9243     -0.00000
     96       3.9545     -0.00000

 k-point    52 :       0.1250   -0.4375    0.0000
  band No.  band energies     occupation 
      1      -8.4062      2.00000
      2      -8.3314      2.00000
      3      -7.3372      2.00000
      4      -7.3009      2.00000
      5      -6.9479      2.00000
      6      -6.6841      2.00000
      7      -6.5887      2.00000
      8      -6.5169      2.00000
      9      -6.4611      2.00000
     10      -6.3477      2.00000
     11      -6.3058      2.00000
     12      -6.2443      2.00000
     13      -6.1889      2.00000
     14      -6.0551      2.00000
     15      -5.8782      2.00000
     16      -5.8382      2.00000
     17      -5.7868      2.00000
     18      -5.7523      2.00000
     19      -5.5796      2.00000
     20      -5.5154      2.00000
     21      -5.4322      2.00000
     22      -5.3582      2.00000
     23      -5.2395      2.00000
     24      -5.1891      2.00000
     25      -5.1717      2.00000
     26      -5.1238      2.00000
     27      -5.0640      2.00000
     28      -5.0382      2.00000
     29      -4.7896      2.00000
     30      -4.6661      2.00000
     31      -4.6247      2.00000
     32      -4.5757      2.00000
     33      -4.5232      2.00000
     34      -4.4595      2.00000
     35      -4.3566      2.00000
     36      -4.3147      2.00000
     37      -4.1990      2.00000
     38      -4.1239      2.00000
     39      -4.1104      2.00000
     40      -4.0448      2.00000
     41      -3.9798      2.00000
     42      -3.8504      2.00000
     43      -3.8095      2.00000
     44      -3.7889      2.00000
     45      -3.7332      2.00000
     46      -3.6933      2.00000
     47      -3.6717      2.00000
     48      -3.6426      2.00000
     49      -3.5868      2.00000
     50      -3.4900      2.00000
     51      -3.3955      2.00000
     52      -3.3529      2.00000
     53      -3.2638      2.00000
     54      -3.0957      2.00000
     55      -2.9848      2.00000
     56      -2.9294      2.00000
     57      -2.8846      2.00000
     58      -2.8256      2.00000
     59      -2.7151      2.00000
     60      -2.6471      2.00000
     61      -2.4772      2.00000
     62      -2.4690      2.00000
     63      -2.3696      2.00000
     64      -2.3367      2.00000
     65      -2.2023      2.00000
     66      -2.1693      2.00000
     67      -2.1138      2.00000
     68      -2.0347      2.00000
     69      -1.9987      2.00000
     70      -1.9114      2.00000
     71      -1.8453      2.00000
     72      -1.7855      2.00000
     73      -1.7809      2.00000
     74      -1.6071      2.00000
     75      -1.4152      2.00080
     76      -1.3897      2.00149
     77      -1.2549      2.02037
     78      -1.1603      2.05967
     79      -1.0766      2.05607
     80      -1.0149      1.93484
     81      -0.9503      1.61962
     82      -0.8191      0.58079
     83      -0.7492      0.15445
     84      -0.6552     -0.06264
     85      -0.4982     -0.02438
     86      -0.4207     -0.00660
     87       0.1588     -0.00000
     88       0.5293     -0.00000
     89       1.4424     -0.00000
     90       1.5309     -0.00000
     91       1.5576     -0.00000
     92       2.2699     -0.00000
     93       3.1833     -0.00000
     94       3.3886     -0.00000
     95       3.9042     -0.00000
     96       3.9742     -0.00000


--------------------------------------------------------------------------------------------------------


 soft charge-density along one line, spin component           1
         0         1         2         3         4         5         6         7         8         9
 total charge-density along one line
 
 pseudopotential strength for first ion, spin component:           1
 -8.331   0.000  -0.000  -0.012  -0.000  -8.541   0.000  -0.000
  0.000  -8.254   0.002  -0.000  -0.014   0.000  -8.465   0.002
 -0.000   0.002  -8.258  -0.000   0.001  -0.000   0.002  -8.469
 -0.012  -0.000  -0.000  -8.263  -0.000  -0.012  -0.000  -0.000
 -0.000  -0.014   0.001  -0.000  -8.330  -0.000  -0.014   0.001
 -8.541   0.000  -0.000  -0.012  -0.000  -8.736   0.000  -0.000
  0.000  -8.465   0.002  -0.000  -0.014   0.000  -8.661   0.002
 -0.000   0.002  -8.469  -0.000   0.001  -0.000   0.002  -8.665
 -0.012  -0.000  -0.000  -8.473  -0.000  -0.012  -0.000  -0.000
 -0.000  -0.014   0.001  -0.000  -8.539  -0.000  -0.014   0.001
  0.000  -0.001  -0.020  -0.000   0.001   0.000  -0.001  -0.020
  0.000  -0.001  -0.031  -0.000   0.002   0.000  -0.001  -0.031
 -0.000  -0.007   0.000  -0.000   0.000  -0.000  -0.007   0.000
 -0.000  -0.000  -0.014   0.000  -0.000  -0.000  -0.000  -0.014
  0.000  -0.000   0.000  -0.007   0.000   0.000  -0.000   0.000
 -0.000  -0.006   0.000  -0.000   0.001  -0.000  -0.006   0.000
 -0.000  -0.000  -0.015   0.000  -0.000  -0.000  -0.000  -0.015
  0.000  -0.000   0.000  -0.006   0.000   0.000  -0.000   0.000
 total augmentation occupancy for first ion, spin component:           1
  2.618   0.000   0.000  -0.349   0.000  -1.854   0.000   0.000   0.122   0.000   0.000   0.000   0.000   0.000  -0.039   0.000
  0.000   3.400   0.033   0.000  -0.336   0.000  -1.878  -0.017   0.000   0.121   0.016  -0.001  -0.233  -0.000   0.000   0.007
  0.000   0.033   3.571   0.000  -0.010   0.000  -0.017  -2.311   0.000   0.003   0.661  -0.060   0.003  -0.230   0.000  -0.000
 -0.349   0.000   0.000   3.270   0.000   0.129   0.000   0.000  -1.802   0.000   0.000   0.000   0.000   0.000  -0.229   0.000
  0.000  -0.336  -0.010   0.000   2.646   0.000   0.115   0.002   0.000  -1.868  -0.002   0.001  -0.040   0.000   0.000   0.003
 -1.854   0.000   0.000   0.129   0.000   2.521   0.000   0.000   0.025   0.000   0.000   0.000   0.000   0.000   0.042   0.000
  0.000  -1.878  -0.017   0.000   0.115   0.000   1.963   0.009   0.000   0.030  -0.010   0.000   0.228  -0.000   0.000  -0.016
  0.000  -0.017  -2.311   0.000   0.002   0.000   0.009   2.597   0.000   0.001  -0.694   0.088  -0.002   0.322   0.000   0.000
  0.122   0.000   0.000  -1.802   0.000   0.025   0.000   0.000   1.915   0.000   0.000   0.000   0.000   0.000   0.225   0.000
  0.000   0.121   0.003   0.000  -1.868   0.000   0.030   0.001   0.000   2.526  -0.000   0.001   0.043   0.000   0.000  -0.003
  0.000   0.016   0.661   0.000  -0.002   0.000  -0.010  -0.694   0.000  -0.000   2.089  -0.341   0.000   0.173   0.000  -0.000
  0.000  -0.001  -0.060   0.000   0.001   0.000   0.000   0.088   0.000   0.001  -0.341   0.073   0.000  -0.050   0.000   0.000
  0.000  -0.233   0.003   0.000  -0.040   0.000   0.228  -0.002   0.000   0.043   0.000   0.000   0.265  -0.000   0.000  -0.014
  0.000  -0.000  -0.230   0.000   0.000   0.000  -0.000   0.322   0.000   0.000   0.173  -0.050  -0.000   0.145   0.000   0.000
 -0.039   0.000   0.000  -0.229   0.000   0.042   0.000   0.000   0.225   0.000   0.000   0.000   0.000   0.000   0.265   0.000
  0.000   0.007  -0.000   0.000   0.003   0.000  -0.016   0.000   0.000  -0.003  -0.000   0.000  -0.014   0.000   0.000   0.001
  0.000  -0.000  -0.003   0.000   0.000   0.000   0.000  -0.019   0.000  -0.000  -0.018   0.004   0.000  -0.010   0.000  -0.000
  0.003   0.000   0.000   0.008   0.000  -0.003   0.000   0.000  -0.016   0.000   0.000   0.000   0.000   0.000  -0.014   0.000


------------------------ aborting loop because EDIFF is reached ----------------------------------------



 DIPCOR: dipole corrections for dipol
 direction  3 min pos    12,
 dipolmoment           0.000000      0.000000      0.005905 electrons x Angstroem
 Tr[quadrupol]      -955.371590

 energy correction for charged system         0.000000 eV
 dipol+quadrupol energy correction            0.000004 eV
 added-field ion interaction          0.000000 eV  (added to PSCEN)

 
  *************** adding dipol energy to TOTEN NOW **************** 
    CHARGE:  cpu time    0.3182: real time    0.3182
    FORLOC:  cpu time    0.0023: real time    0.0023
    FORNL :  cpu time    4.5443: real time    4.5447
    STRESS:  cpu time    7.6466: real time    7.6473
    FORCOR:  cpu time    0.0181: real time    0.0181
    FORHAR:  cpu time    0.0056: real time    0.0057
    MIXING:  cpu time    0.0015: real time    0.0015
    OFIELD:  cpu time    0.0000: real time    0.0000

  FORCE on cell =-STRESS in cart. coord.  units (eV):
  Direction    XX          YY          ZZ          XY          YZ          ZX
  --------------------------------------------------------------------------------------
  Alpha Z   303.52544   303.52544   303.52544
  Ewald  107763.36389107763.27344************     0.00000    -0.13133    -0.00000
  Hartree110071.71248110071.73800************    -0.00000    -0.07231     0.00000
  E(xc)    -709.63359  -709.65784  -714.51574     0.00004    -0.01411    -0.00000
  Local  ************************223179.02287     0.00118    -0.11800    -0.00005
  n-local    58.97471    58.92056    40.86181     3.98377     0.16944    -0.47432
  augment   834.18930   834.32265   862.96488    -0.00078     0.07759    -0.00000
  Kinetic  2281.35997  2281.62806  2355.39864     2.54337     0.17998    -0.34846
  Fock        0.00000     0.00000     0.00000     0.00000     0.00000     0.00000
  -------------------------------------------------------------------------------------
  Total     -11.11209   -11.12767     0.04293     0.00000     0.09126     0.00000
  in kB     -21.60288   -21.63317     0.08346     0.00000     0.17742     0.00000
  external pressure =      -14.38 kB  Pullay stress =        0.00 kB


 VOLUME and BASIS-vectors are now :
 -----------------------------------------------------------------------------
  energy-cutoff  :      350.00
  volume of cell :      824.13
      direct lattice vectors                 reciprocal lattice vectors
     5.557859300  0.000000000  0.000000000     0.179925390 -0.103879972  0.000000000
     2.778929650  4.813247345  0.000000000     0.000000000  0.207759944  0.000000000
     0.000000000  0.000000000 30.806959674     0.000000000  0.000000000  0.032460198

  length of vectors
     5.557859300  5.557859300 30.806959674     0.207759944  0.207759944  0.032460198


 FORCES acting on ions
    electron-ion (+dipol)            ewald-force                    non-local-force                 convergence-correction
 -----------------------------------------------------------------------------------------------
   -.271E-06 0.269E+00 0.257E+04   -.879E-12 -.256E+00 -.257E+04   -.867E-18 0.163E-01 -.208E+00   -.692E-08 0.382E-02 -.820E-01
   0.621E-06 -.454E-01 0.285E+04   -.935E-12 -.555E-12 -.285E+04   0.000E+00 0.657E-01 -.669E+00   -.301E-08 0.112E-02 -.873E-01
   -.301E+00 -.140E+00 0.286E+04   0.247E+00 0.142E+00 -.285E+04   0.541E-01 -.309E-01 -.779E+00   -.272E-02 -.268E-02 -.890E-01
   0.301E+00 -.140E+00 0.286E+04   -.247E+00 0.142E+00 -.285E+04   -.541E-01 -.309E-01 -.779E+00   0.272E-02 -.268E-02 -.890E-01
   -.120E+00 0.552E+01 0.101E+04   0.126E+00 -.572E+01 -.101E+04   -.111E-01 0.188E-01 -.228E+00   -.140E-01 -.186E-01 -.252E+00
   0.120E+00 0.552E+01 0.101E+04   -.126E+00 -.572E+01 -.101E+04   0.111E-01 0.188E-01 -.228E+00   0.140E-01 -.186E-01 -.252E+00
   0.112E-05 -.547E+01 0.100E+04   0.363E-11 0.564E+01 -.100E+04   0.347E-17 -.191E-01 -.285E+00   0.421E-08 0.266E-01 -.243E+00
   0.115E-05 -.561E+01 0.100E+04   0.217E-11 0.579E+01 -.100E+04   0.867E-18 -.107E-01 -.266E+00   0.111E-07 0.105E-01 -.229E+00
   -.938E-06 -.268E-01 -.927E+03   -.292E-11 -.174E-11 0.927E+03   0.000E+00 0.672E-01 0.511E+00   0.541E-08 -.604E-02 -.208E+00
   -.293E+00 -.133E+00 -.926E+03   0.247E+00 0.142E+00 0.926E+03   0.694E-01 -.209E-01 0.424E+00   -.300E-02 0.430E-02 -.207E+00
   0.293E+00 -.133E+00 -.926E+03   -.247E+00 0.142E+00 0.926E+03   -.694E-01 -.209E-01 0.424E+00   0.300E-02 0.430E-02 -.207E+00
   -.738E-06 0.534E+01 -.284E+04   0.672E-12 -.553E+01 0.284E+04   0.000E+00 0.781E-01 0.104E+01   0.388E-08 -.216E-02 -.318E-01
   -.755E-06 0.256E-01 -.284E+04   0.112E-11 0.656E-12 0.283E+04   0.130E-17 0.103E-01 0.926E+00   0.409E-09 -.816E-02 -.254E-01
   -.460E+01 -.267E+01 -.284E+04   0.479E+01 0.277E+01 0.284E+04   -.630E-01 -.554E-01 0.105E+01   -.516E-02 0.510E-02 -.244E-01
   0.460E+01 -.267E+01 -.284E+04   -.479E+01 0.277E+01 0.284E+04   0.630E-01 -.554E-01 0.105E+01   0.516E-02 0.510E-02 -.244E-01
   -.102E-05 0.330E+00 -.102E+04   -.326E-11 -.313E+00 0.102E+04   0.000E+00 -.558E-02 0.308E+00   0.195E-08 -.279E-02 -.235E+00
 -----------------------------------------------------------------------------------------------
   -.792E-06 -.247E-01 -.121E-01   0.736E-14 0.799E-14 0.909E-12   0.000E+00 0.254E-01 0.230E+01   0.149E-08 -.879E-03 -.229E+01
 
 
 POSITION                                       TOTAL-FORCE (eV/Angst)
 -----------------------------------------------------------------------------------
      0.00000      0.00000     12.00000        -0.000000      0.032907      1.118908
      2.77893      0.00000     12.00000        -0.000000      0.021406     -0.397194
      1.38946      2.40662     12.00000        -0.003373     -0.031060     -0.108113
      4.16839      2.40662     12.00000         0.003373     -0.031060     -0.108113
      1.38946      0.80221     14.31554        -0.018448     -0.191927     -0.412829
      4.16839      0.80221     14.31554         0.018448     -0.191927     -0.412829
      2.77893      3.20883     14.31554         0.000000      0.180361     -0.206113
      5.55786      3.20883     14.31554         0.000000      0.181132     -0.074371
      2.77893      1.60442     16.61120        -0.000000      0.034367     -0.158568
      6.94732      4.01104     16.61120         0.020352     -0.007049      0.073082
      4.16839      4.01104     16.61120        -0.020352     -0.007049      0.073082
      0.00000      0.00000     18.94198         0.000000     -0.122610      0.151267
      2.77893      0.00000     18.94198        -0.000000      0.027716     -0.061252
      1.38946      2.40662     18.94198         0.127247      0.048116      0.155073
      4.16839      2.40662     18.94198        -0.127247      0.048116      0.155073
      5.55786      1.60442     16.61120         0.000000      0.008563      0.212897
 -----------------------------------------------------------------------------------
    total drift:                               -0.000001     -0.000148     -0.000432


--------------------------------------------------------------------------------------------------------



  FREE ENERGIE OF THE ION-ELECTRON SYSTEM (eV)
  ---------------------------------------------------
  free  energy   TOTEN  =       -91.75713370 eV

  energy  without entropy=      -91.74339812  energy(sigma->0) =      -91.75255518
 


--------------------------------------------------------------------------------------------------------


    POTLOK:  cpu time    0.0194: real time    0.0194


--------------------------------------------------------------------------------------------------------


     LOOP+:  cpu time  301.4452: real time  301.5391
    4ORBIT:  cpu time    0.0000: real time    0.0000

 total amount of memory used by VASP MPI-rank0   362189. kBytes
=======================================================================

   base      :      30000. kBytes
   nonl-proj :     280273. kBytes
   fftplans  :       2015. kBytes
   grid      :       7641. kBytes
   one-center:        248. kBytes
   wavefun   :      42012. kBytes
 
  
  
 General timing and accounting informations for this job:
 ========================================================
  
                  Total CPU time used (sec):      306.833
                            User time (sec):      305.769
                          System time (sec):        1.064
                         Elapsed time (sec):      307.079
  
                   Maximum memory used (kb):      403500.
                   Average memory used (kb):           0.
  
                          Minor page faults:        74910
                          Major page faults:            0
                 Voluntary context switches:          791
