<?xml version="1.0" encoding="ISO-8859-1"?>
<modeling>
 <generator>
  <i name="program" type="string">vasp </i>
  <i name="version" type="string">5.4.4.18Apr17-6-g9f103f2a35  </i>
  <i name="subversion" type="string">(build Apr 28 2017 10:53:45) complex            parallel </i>
  <i name="platform" type="string">LinuxIFC </i>
  <i name="date" type="string">2020 02 16 </i>
  <i name="time" type="string">21:18:39 </i>
 </generator>
 <incar>
  <i type="string" name="PREC">normal</i>
  <i type="int" name="ISPIN">     1</i>
  <i type="int" name="IBRION">     2</i>
  <i name="EDIFF">      0.00001000</i>
  <i name="EDIFFG">     -0.05000000</i>
  <i type="int" name="NSW">     0</i>
  <i name="ENCUT">    350.00000000</i>
  <i type="logical" name="LWAVE"> F  </i>
  <i type="logical" name="LCHARG"> F  </i>
  <v type="int" name="KPOINT_BSE">    -1     0     0     0</v>
  <i type="string" name="GGA"> PE</i>
  <i type="int" name="IDIPOL">     3</i>
 </incar>
 <structure name="primitive_cell" >
  <crystal>
   <varray name="basis" >
    <v>       5.55785930       0.00000000       0.00000000 </v>
    <v>       2.77892965       4.81324734       0.00000000 </v>
    <v>       0.00000000       0.00000000      30.80695967 </v>
   </varray>
   <i name="volume">    824.12780743 </i>
   <varray name="rec_basis" >
    <v>       0.17992539      -0.10387997       0.00000000 </v>
    <v>       0.00000000       0.20775994       0.00000000 </v>
    <v>       0.00000000       0.00000000       0.03246020 </v>
   </varray>
  </crystal>
  <varray name="positions" >
   <v>       0.00000000       0.00000000       0.38952237 </v>
   <v>       0.00000000      -0.50000000       0.38952237 </v>
   <v>      -0.50000000      -0.50000000       0.38952237 </v>
   <v>      -0.50000000       0.00000000       0.38952237 </v>
   <v>       0.16666667       0.16666667       0.46468540 </v>
   <v>       0.16666667      -0.33333333       0.46468540 </v>
   <v>      -0.33333333       0.16666667       0.46468540 </v>
   <v>      -0.33333333      -0.33333333       0.46468540 </v>
   <v>      -0.16666667      -0.16666667      -0.46079704 </v>
   <v>      -0.16666667       0.33333333      -0.46079704 </v>
   <v>       0.33333333      -0.16666667      -0.46079704 </v>
   <v>       0.33333333       0.33333333      -0.46079704 </v>
   <v>       0.00000000       0.00000000      -0.38513957 </v>
   <v>      -0.50000000       0.00000000      -0.38513957 </v>
   <v>       0.00000000      -0.50000000      -0.38513957 </v>
   <v>      -0.50000000      -0.50000000      -0.38513957 </v>
  </varray>
 </structure>
 <varray name="primitive_index" >
  <v type="int" >        1 </v>
  <v type="int" >        3 </v>
  <v type="int" >        4 </v>
  <v type="int" >        2 </v>
  <v type="int" >        5 </v>
  <v type="int" >        7 </v>
  <v type="int" >        6 </v>
  <v type="int" >        8 </v>
  <v type="int" >       10 </v>
  <v type="int" >       16 </v>
  <v type="int" >       11 </v>
  <v type="int" >        9 </v>
  <v type="int" >       12 </v>
  <v type="int" >       13 </v>
  <v type="int" >       14 </v>
  <v type="int" >       15 </v>
 </varray>
 <kpoints>
  <generation param="Monkhorst-Pack">
   <v type="int" name="divisions">       8        8        1 </v>
   <v name="usershift">      0.00000000       0.00000000       0.00000000 </v>
   <v name="genvec1">      0.12500000       0.00000000       0.00000000 </v>
   <v name="genvec2">      0.00000000       0.12500000       0.00000000 </v>
   <v name="genvec3">      0.00000000       0.00000000       1.00000000 </v>
   <v name="shift">      0.50000000       0.50000000       0.00000000 </v>
  </generation>
  <varray name="kpointlist" >
   <v>       0.06250000       0.06250000       0.00000000 </v>
   <v>       0.00000000       0.06250000       0.00000000 </v>
   <v>       0.18750000       0.06250000       0.00000000 </v>
   <v>       0.12500000       0.18750000       0.00000000 </v>
   <v>      -0.06250000       0.12500000       0.00000000 </v>
   <v>       0.31250000       0.06250000       0.00000000 </v>
   <v>       0.25000000       0.31250000       0.00000000 </v>
   <v>      -0.06250000       0.25000000       0.00000000 </v>
   <v>       0.43750000       0.06250000       0.00000000 </v>
   <v>       0.37500000       0.43750000       0.00000000 </v>
   <v>      -0.06250000       0.37500000       0.00000000 </v>
   <v>      -0.43750000       0.06250000       0.00000000 </v>
   <v>       0.50000000      -0.43750000       0.00000000 </v>
   <v>      -0.06250000       0.50000000       0.00000000 </v>
   <v>      -0.31250000       0.06250000       0.00000000 </v>
   <v>      -0.37500000      -0.31250000       0.00000000 </v>
   <v>      -0.06250000      -0.37500000       0.00000000 </v>
   <v>      -0.18750000       0.06250000       0.00000000 </v>
   <v>      -0.25000000      -0.18750000       0.00000000 </v>
   <v>      -0.06250000      -0.25000000       0.00000000 </v>
   <v>      -0.06250000       0.06250000       0.00000000 </v>
   <v>      -0.12500000      -0.06250000       0.00000000 </v>
   <v>       0.18750000       0.18750000       0.00000000 </v>
   <v>       0.00000000       0.18750000       0.00000000 </v>
   <v>       0.31250000       0.18750000       0.00000000 </v>
   <v>       0.12500000       0.31250000       0.00000000 </v>
   <v>      -0.18750000       0.12500000       0.00000000 </v>
   <v>       0.43750000       0.18750000       0.00000000 </v>
   <v>       0.25000000       0.43750000       0.00000000 </v>
   <v>      -0.18750000       0.25000000       0.00000000 </v>
   <v>      -0.43750000       0.18750000       0.00000000 </v>
   <v>       0.37500000      -0.43750000       0.00000000 </v>
   <v>      -0.18750000       0.37500000       0.00000000 </v>
   <v>      -0.31250000       0.18750000       0.00000000 </v>
   <v>       0.50000000      -0.31250000       0.00000000 </v>
   <v>      -0.18750000       0.50000000       0.00000000 </v>
   <v>      -0.18750000       0.18750000       0.00000000 </v>
   <v>      -0.37500000      -0.18750000       0.00000000 </v>
   <v>       0.31250000       0.31250000       0.00000000 </v>
   <v>       0.00000000       0.31250000       0.00000000 </v>
   <v>       0.43750000       0.31250000       0.00000000 </v>
   <v>       0.12500000       0.43750000       0.00000000 </v>
   <v>      -0.31250000       0.12500000       0.00000000 </v>
   <v>      -0.43750000       0.31250000       0.00000000 </v>
   <v>       0.25000000      -0.43750000       0.00000000 </v>
   <v>      -0.31250000       0.25000000       0.00000000 </v>
   <v>      -0.31250000       0.31250000       0.00000000 </v>
   <v>       0.37500000      -0.31250000       0.00000000 </v>
   <v>       0.43750000       0.43750000       0.00000000 </v>
   <v>       0.00000000       0.43750000       0.00000000 </v>
   <v>      -0.43750000       0.43750000       0.00000000 </v>
   <v>       0.12500000      -0.43750000       0.00000000 </v>
  </varray>
  <varray name="weights" >
   <v>       0.02083333 </v>
   <v>       0.01041667 </v>
   <v>       0.02083333 </v>
   <v>       0.02083333 </v>
   <v>       0.02083333 </v>
   <v>       0.02083333 </v>
   <v>       0.02083333 </v>
   <v>       0.02083333 </v>
   <v>       0.02083333 </v>
   <v>       0.02083333 </v>
   <v>       0.02083333 </v>
   <v>       0.02083333 </v>
   <v>       0.02083333 </v>
   <v>       0.02083333 </v>
   <v>       0.02083333 </v>
   <v>       0.02083333 </v>
   <v>       0.02083333 </v>
   <v>       0.02083333 </v>
   <v>       0.02083333 </v>
   <v>       0.02083333 </v>
   <v>       0.02083333 </v>
   <v>       0.01041667 </v>
   <v>       0.02083333 </v>
   <v>       0.01041667 </v>
   <v>       0.02083333 </v>
   <v>       0.02083333 </v>
   <v>       0.02083333 </v>
   <v>       0.02083333 </v>
   <v>       0.02083333 </v>
   <v>       0.02083333 </v>
   <v>       0.02083333 </v>
   <v>       0.02083333 </v>
   <v>       0.02083333 </v>
   <v>       0.02083333 </v>
   <v>       0.02083333 </v>
   <v>       0.02083333 </v>
   <v>       0.02083333 </v>
   <v>       0.01041667 </v>
   <v>       0.02083333 </v>
   <v>       0.01041667 </v>
   <v>       0.02083333 </v>
   <v>       0.02083333 </v>
   <v>       0.02083333 </v>
   <v>       0.02083333 </v>
   <v>       0.02083333 </v>
   <v>       0.02083333 </v>
   <v>       0.02083333 </v>
   <v>       0.01041667 </v>
   <v>       0.02083333 </v>
   <v>       0.01041667 </v>
   <v>       0.02083333 </v>
   <v>       0.01041667 </v>
  </varray>
 </kpoints>
 <parameters>
  <separator name="general" >
   <i type="string" name="SYSTEM">unknown system</i>
   <i type="logical" name="LCOMPAT"> F  </i>
  </separator>
  <separator name="electronic" >
   <i type="string" name="PREC">normal</i>
   <i name="ENMAX">    350.00000000</i>
   <i name="ENAUG">    358.96600000</i>
   <i name="EDIFF">      0.00001000</i>
   <i type="int" name="IALGO">    38</i>
   <i type="int" name="IWAVPR">    10</i>
   <i type="int" name="NBANDS">    96</i>
   <i name="NELECT">    160.00000000</i>
   <i type="int" name="TURBO">     0</i>
   <i type="int" name="IRESTART">     0</i>
   <i type="int" name="NREBOOT">     0</i>
   <i type="int" name="NMIN">     0</i>
   <i name="EREF">      0.00000000</i>
   <separator name="electronic smearing" >
    <i type="int" name="ISMEAR">     1</i>
    <i name="SIGMA">      0.20000000</i>
    <i name="KSPACING">      0.50000000</i>
    <i type="logical" name="KGAMMA"> T  </i>
   </separator>
   <separator name="electronic projectors" >
    <i type="logical" name="LREAL"> F  </i>
    <v name="ROPT">      0.00000000      0.00000000      0.00000000</v>
    <i type="int" name="LMAXPAW">  -100</i>
    <i type="int" name="LMAXMIX">     2</i>
    <i type="logical" name="NLSPLINE"> F  </i>
   </separator>
   <separator name="electronic startup" >
    <i type="int" name="ISTART">     0</i>
    <i type="int" name="ICHARG">     2</i>
    <i type="int" name="INIWAV">     1</i>
   </separator>
   <separator name="electronic spin" >
    <i type="int" name="ISPIN">     1</i>
    <i type="logical" name="LNONCOLLINEAR"> F  </i>
    <v name="MAGMOM">      1.00000000      1.00000000      1.00000000      1.00000000      1.00000000      1.00000000      1.00000000      1.00000000      1.00000000      1.00000000      1.00000000      1.00000000      1.00000000      1.00000000      1.00000000      1.00000000</v>
    <i name="NUPDOWN">     -1.00000000</i>
    <i type="logical" name="LSORBIT"> F  </i>
    <v name="SAXIS">      0.00000000      0.00000000      1.00000000</v>
    <i type="logical" name="LSPIRAL"> F  </i>
    <v name="QSPIRAL">      0.00000000      0.00000000      0.00000000</v>
    <i type="logical" name="LZEROZ"> F  </i>
   </separator>
   <separator name="electronic exchange-correlation" >
    <i type="logical" name="LASPH"> F  </i>
    <i type="logical" name="LMETAGGA"> F  </i>
   </separator>
   <separator name="electronic convergence" >
    <i type="int" name="NELM">    60</i>
    <i type="int" name="NELMDL">    -5</i>
    <i type="int" name="NELMIN">     2</i>
    <i name="ENINI">    350.00000000</i>
    <separator name="electronic convergence detail" >
     <i type="logical" name="LDIAG"> T  </i>
     <i type="logical" name="LSUBROT"> F  </i>
     <i name="WEIMIN">      0.00000000</i>
     <i name="EBREAK">      0.00000003</i>
     <i name="DEPER">      0.30000000</i>
     <i type="int" name="NRMM">     4</i>
     <i name="TIME">      0.40000000</i>
    </separator>
   </separator>
   <separator name="electronic mixer" >
    <i name="AMIX">      0.40000000</i>
    <i name="BMIX">      1.00000000</i>
    <i name="AMIN">      0.10000000</i>
    <i name="AMIX_MAG">      1.60000000</i>
    <i name="BMIX_MAG">      1.00000000</i>
    <separator name="electronic mixer details" >
     <i type="int" name="IMIX">     4</i>
     <i type="logical" name="MIXFIRST"> F  </i>
     <i type="int" name="MAXMIX">   -45</i>
     <i name="WC">    100.00000000</i>
     <i type="int" name="INIMIX">     1</i>
     <i type="int" name="MIXPRE">     1</i>
     <i type="int" name="MREMOVE">     5</i>
    </separator>
   </separator>
   <separator name="electronic dipolcorrection" >
    <i type="logical" name="LDIPOL"> F  </i>
    <i type="logical" name="LMONO"> F  </i>
    <i type="int" name="IDIPOL">     3</i>
    <i name="EPSILON">      1.00000000</i>
    <v name="DIPOL">   -100.00000000   -100.00000000   -100.00000000</v>
    <i name="EFIELD">      0.00000000</i>
   </separator>
  </separator>
  <separator name="grids" >
   <i type="int" name="NGX">    28</i>
   <i type="int" name="NGY">    28</i>
   <i type="int" name="NGZ">   144</i>
   <i type="int" name="NGXF">    56</i>
   <i type="int" name="NGYF">    56</i>
   <i type="int" name="NGZF">   288</i>
   <i type="logical" name="ADDGRID"> F  </i>
  </separator>
  <separator name="ionic" >
   <i type="int" name="NSW">     0</i>
   <i type="int" name="IBRION">    -1</i>
   <i type="int" name="MDALGO">     0</i>
   <i type="int" name="ISIF">     2</i>
   <i name="PSTRESS">      0.00000000</i>
   <i name="EDIFFG">     -0.05000000</i>
   <i type="int" name="NFREE">     1</i>
   <i name="POTIM">      0.50000000</i>
   <i name="SMASS">     -3.00000000</i>
   <i name="SCALEE">      1.00000000</i>
  </separator>
  <separator name="ionic md" >
   <i name="TEBEG">      0.00010000</i>
   <i name="TEEND">      0.00010000</i>
   <i type="int" name="NBLOCK">     1</i>
   <i type="int" name="KBLOCK">     1</i>
   <i type="int" name="NPACO">   256</i>
   <i name="APACO">     16.00000000</i>
  </separator>
  <separator name="symmetry" >
   <i type="int" name="ISYM">     2</i>
   <i name="SYMPREC">      0.00001000</i>
  </separator>
  <separator name="dos" >
   <i type="int" name="LORBIT">     0</i>
   <v name="RWIGS">     -1.00000000     -1.00000000     -1.00000000</v>
   <i type="int" name="NEDOS">   301</i>
   <i name="EMIN">     10.00000000</i>
   <i name="EMAX">    -10.00000000</i>
   <i name="EFERMI">      0.00000000</i>
  </separator>
  <separator name="writing" >
   <i type="int" name="NWRITE">     2</i>
   <i type="logical" name="LWAVE"> F  </i>
   <i type="logical" name="LDOWNSAMPLE"> F  </i>
   <i type="logical" name="LCHARG"> F  </i>
   <i type="logical" name="LPARD"> F  </i>
   <i type="logical" name="LVTOT"> F  </i>
   <i type="logical" name="LVHAR"> F  </i>
   <i type="logical" name="LELF"> F  </i>
   <i type="logical" name="LOPTICS"> F  </i>
   <v name="STM">      0.00000000      0.00000000      0.00000000      0.00000000      0.00000000      0.00000000      0.00000000</v>
  </separator>
  <separator name="performance" >
   <i type="int" name="NPAR">    24</i>
   <i type="int" name="NSIM">     4</i>
   <i type="int" name="NBLK">    -1</i>
   <i type="logical" name="LPLANE"> T  </i>
   <i type="logical" name="LSCALAPACK"> T  </i>
   <i type="logical" name="LSCAAWARE"> F  </i>
   <i type="logical" name="LSCALU"> F  </i>
   <i type="logical" name="LASYNC"> F  </i>
   <i type="logical" name="LORBITALREAL"> F  </i>
  </separator>
  <separator name="miscellaneous" >
   <i type="int" name="IDIOT">     3</i>
   <i type="int" name="ISPECIAL">     0</i>
   <i type="logical" name="LMUSIC"> F  </i>
   <v name="POMASS">    192.22000000    195.08000000    196.96600000</v>
   <v name="DARWINR">      0.00000000      0.00000000      0.00000000</v>
   <v name="DARWINV">      1.00000000      1.00000000      1.00000000</v>
   <i type="logical" name="LCORR"> T  </i>
  </separator>
  <i type="logical" name="GGA_COMPAT"> T  </i>
  <i type="logical" name="LBERRY"> F  </i>
  <i type="int" name="ICORELEVEL">     0</i>
  <i type="logical" name="LDAU"> F  </i>
  <i type="int" name="I_CONSTRAINED_M">     0</i>
  <separator name="electronic exchange-correlation" >
   <i type="string" name="GGA">PE</i>
   <i type="int" name="VOSKOWN">     0</i>
   <i type="logical" name="LHFCALC"> F  </i>
   <i type="string" name="PRECFOCK"></i>
   <i type="logical" name="LSYMGRAD"> F  </i>
   <i type="logical" name="LHFONE"> F  </i>
   <i type="logical" name="LRHFCALC"> F  </i>
   <i type="logical" name="LTHOMAS"> F  </i>
   <i type="logical" name="LMODELHF"> F  </i>
   <i name="ENCUT4O">     -1.00000000</i>
   <i type="int" name="EXXOEP">     0</i>
   <i type="int" name="FOURORBIT">     0</i>
   <i name="AEXX">      0.00000000</i>
   <i name="HFALPHA">      0.00000000</i>
   <i name="MCALPHA">      0.00000000</i>
   <i name="ALDAX">      1.00000000</i>
   <i name="AGGAX">      1.00000000</i>
   <i name="ALDAC">      1.00000000</i>
   <i name="AGGAC">      1.00000000</i>
   <i type="int" name="NKREDX">     1</i>
   <i type="int" name="NKREDY">     1</i>
   <i type="int" name="NKREDZ">     1</i>
   <i type="logical" name="SHIFTRED"> F  </i>
   <i type="logical" name="ODDONLY"> F  </i>
   <i type="logical" name="EVENONLY"> F  </i>
   <i type="int" name="LMAXFOCK">     0</i>
   <i type="int" name="NMAXFOCKAE">     0</i>
   <i type="logical" name="LFOCKAEDFT"> F  </i>
   <i name="HFSCREEN">      0.00000000</i>
   <i name="HFSCREENC">      0.00000000</i>
   <i type="int" name="NBANDSGWLOW">     0</i>
  </separator>
  <separator name="vdW DFT" >
   <i type="logical" name="LUSE_VDW"> F  </i>
   <i name="Zab_VDW">     -0.84910000</i>
   <i name="PARAM1">      0.12340000</i>
   <i name="PARAM2">      1.00000000</i>
   <i name="PARAM3">      0.00000000</i>
  </separator>
  <separator name="model GW" >
   <i type="int" name="MODEL_GW">     0</i>
   <i name="MODEL_EPS0">     30.90479278</i>
   <i name="MODEL_ALPHA">      1.00000000</i>
  </separator>
  <separator name="linear response parameters" >
   <i type="logical" name="LEPSILON"> F  </i>
   <i type="logical" name="LRPA"> F  </i>
   <i type="logical" name="LNABLA"> F  </i>
   <i type="logical" name="LVEL"> F  </i>
   <i type="int" name="KINTER">     0</i>
   <i name="CSHIFT">      0.10000000</i>
   <i name="OMEGAMAX">     -1.00000000</i>
   <i name="DEG_THRESHOLD">      0.00200000</i>
   <i name="RTIME">     -0.10000000</i>
   <i name="WPLASMAI">      0.00000000</i>
   <v name="DFIELD">      0.00000000      0.00000000      0.00000000</v>
   <v name="WPLASMA">      0.00000000      0.00000000      0.00000000      0.00000000      0.00000000      0.00000000      0.00000000      0.00000000      0.00000000</v>
  </separator>
  <separator name="orbital magnetization" >
   <i type="logical" name="NUCIND"> F  </i>
   <v name="MAGPOS">      0.00000000      0.00000000      0.00000000</v>
   <i type="logical" name="LNICSALL"> T  </i>
   <i type="logical" name="ORBITALMAG"> F  </i>
   <i type="logical" name="LMAGBLOCH"> F  </i>
   <i type="logical" name="LCHIMAG"> F  </i>
   <i type="logical" name="LGAUGE"> T  </i>
   <i type="int" name="MAGATOM">     0</i>
   <v name="MAGDIPOL">      0.00000000      0.00000000      0.00000000</v>
   <v name="AVECCONST">      0.00000000      0.00000000      0.00000000</v>
  </separator>
  <separator name="response functions" >
   <i type="logical" name="LADDER"> F  </i>
   <i type="logical" name="LRPAFORCE"> F  </i>
   <i type="logical" name="LFXC"> F  </i>
   <i type="logical" name="LHARTREE"> T  </i>
   <i type="int" name="IBSE">     0</i>
   <v type="int" name="KPOINT">    -1     0     0     0</v>
   <i type="logical" name="LTCTE"> F  </i>
   <i type="logical" name="LTETE"> F  </i>
   <i type="logical" name="LTRIPLET"> F  </i>
   <i type="logical" name="LFXCEPS"> F  </i>
   <i type="logical" name="LFXHEG"> F  </i>
   <i type="int" name="NATURALO">     2</i>
   <i type="logical" name="L2ORDER"> F  </i>
   <i type="logical" name="LMP2LT"> F  </i>
   <i type="logical" name="LUSEW"> F  </i>
   <i name="ENCUTGW">     -2.00000000</i>
   <i name="ENCUTGWSOFT">     -2.00000000</i>
   <i name="ENCUTLF">     -1.00000000</i>
   <i type="int" name="LMAXMP2">    -1</i>
   <i name="SCISSOR">      0.00000000</i>
   <i type="int" name="NOMEGA">     0</i>
   <i type="int" name="NOMEGAR">     0</i>
   <i type="int" name="NBANDSGW">    -1</i>
   <i type="int" name="NBANDSO">    -1</i>
   <i type="int" name="NBANDSV">    -1</i>
   <i type="int" name="NELM">     1</i>
   <i type="int" name="NELMHF">     1</i>
   <i type="int" name="DIM">     3</i>
   <i type="int" name="ANTIRES">     0</i>
   <i name="OMEGAMAX">    -30.00000000</i>
   <i name="OMEGAMIN">    -30.00000000</i>
   <i name="OMEGATL">   -200.00000000</i>
   <i type="int" name="OMEGAGRID">   140</i>
   <i name="CSHIFT">     -0.10000000</i>
   <i type="logical" name="SELFENERGY"> F  </i>
   <i type="logical" name="LSPECTRAL"> F  </i>
   <i type="logical" name="LSPECTRALGW"> F  </i>
   <i type="logical" name="LSINGLES"> F  </i>
   <i type="logical" name="LFERMIGW"> F  </i>
   <i type="logical" name="ODDONLYGW"> F  </i>
   <i type="logical" name="EVENONLYGW"> F  </i>
   <i type="int" name="NKREDLFX">     1</i>
   <i type="int" name="NKREDLFY">     1</i>
   <i type="int" name="NKREDLFZ">     1</i>
   <i type="int" name="MAXMEM">  2800</i>
   <i type="int" name="TELESCOPE">     0</i>
   <i type="int" name="TAUPAR">     1</i>
   <i type="int" name="OMEGAPAR">    -1</i>
   <i name="LAMBDA">      1.00000000</i>
  </separator>
  <separator name="External order field" >
   <i name="OFIELD_KAPPA">      0.00000000</i>
   <v name="OFIELD_K">      0.00000000      0.00000000      0.00000000</v>
   <i name="OFIELD_Q6_NEAR">      0.00000000</i>
   <i name="OFIELD_Q6_FAR">      0.00000000</i>
   <i name="OFIELD_A">      0.00000000</i>
  </separator>
 </parameters>
 <atominfo>
  <atoms>      16 </atoms>
  <types>       3 </types>
  <array name="atoms" >
   <dimension dim="1">ion</dimension>
   <field type="string">element</field>
   <field type="int">atomtype</field>
   <set>
    <rc><c>Ir</c><c>   1</c></rc>
    <rc><c>Pt</c><c>   2</c></rc>
    <rc><c>Pt</c><c>   2</c></rc>
    <rc><c>Pt</c><c>   2</c></rc>
    <rc><c>Pt</c><c>   2</c></rc>
    <rc><c>Pt</c><c>   2</c></rc>
    <rc><c>Pt</c><c>   2</c></rc>
    <rc><c>Pt</c><c>   2</c></rc>
    <rc><c>Pt</c><c>   2</c></rc>
    <rc><c>Pt</c><c>   2</c></rc>
    <rc><c>Pt</c><c>   2</c></rc>
    <rc><c>Pt</c><c>   2</c></rc>
    <rc><c>Pt</c><c>   2</c></rc>
    <rc><c>Pt</c><c>   2</c></rc>
    <rc><c>Pt</c><c>   2</c></rc>
    <rc><c>Au</c><c>   3</c></rc>
   </set>
  </array>
  <array name="atomtypes" >
   <dimension dim="1">type</dimension>
   <field type="int">atomspertype</field>
   <field type="string">element</field>
   <field>mass</field>
   <field>valence</field>
   <field type="string">pseudopotential</field>
   <set>
    <rc><c>   1</c><c>Ir</c><c>    192.22000000</c><c>      9.00000000</c><c>  PAW_PBE Ir 06Sep2000                  </c></rc>
    <rc><c>  14</c><c>Pt</c><c>    195.08000000</c><c>     10.00000000</c><c>  PAW_PBE Pt 04Feb2005                  </c></rc>
    <rc><c>   1</c><c>Au</c><c>    196.96600000</c><c>     11.00000000</c><c>  PAW_PBE Au 04Oct2007                  </c></rc>
   </set>
  </array>
 </atominfo>
 <structure name="initialpos" >
  <crystal>
   <varray name="basis" >
    <v>       5.55785930       0.00000000       0.00000000 </v>
    <v>       2.77892965       4.81324734       0.00000000 </v>
    <v>       0.00000000       0.00000000      30.80695967 </v>
   </varray>
   <i name="volume">    824.12780743 </i>
   <varray name="rec_basis" >
    <v>       0.17992539      -0.10387997       0.00000000 </v>
    <v>       0.00000000       0.20775994       0.00000000 </v>
    <v>       0.00000000       0.00000000       0.03246020 </v>
   </varray>
  </crystal>
  <varray name="positions" >
   <v>       0.00000000       0.00000000       0.38952237 </v>
   <v>       0.50000000       0.00000000       0.38952237 </v>
   <v>       0.00000000       0.50000000       0.38952237 </v>
   <v>       0.50000000       0.50000000       0.38952237 </v>
   <v>       0.16666667       0.16666667       0.46468540 </v>
   <v>       0.66666667       0.16666667       0.46468540 </v>
   <v>       0.16666667       0.66666667       0.46468540 </v>
   <v>       0.66666667       0.66666667       0.46468540 </v>
   <v>       0.33333333       0.33333333       0.53920296 </v>
   <v>       0.83333333       0.83333333       0.53920296 </v>
   <v>       0.33333333       0.83333333       0.53920296 </v>
   <v>       0.00000000       0.00000000       0.61486043 </v>
   <v>       0.50000000       0.00000000       0.61486043 </v>
   <v>       0.00000000       0.50000000       0.61486043 </v>
   <v>       0.50000000       0.50000000       0.61486043 </v>
   <v>       0.83333333       0.33333333       0.53920296 </v>
  </varray>
  <varray name="selective"  type="logical" >
   <v type="logical" >  F  F  F </v>
   <v type="logical" >  F  F  F </v>
   <v type="logical" >  F  F  F </v>
   <v type="logical" >  F  F  F </v>
   <v type="logical" >  T  T  T </v>
   <v type="logical" >  T  T  T </v>
   <v type="logical" >  T  T  T </v>
   <v type="logical" >  T  T  T </v>
   <v type="logical" >  T  T  T </v>
   <v type="logical" >  T  T  T </v>
   <v type="logical" >  T  T  T </v>
   <v type="logical" >  T  T  T </v>
   <v type="logical" >  T  T  T </v>
   <v type="logical" >  T  T  T </v>
   <v type="logical" >  T  T  T </v>
   <v type="logical" >  T  T  T </v>
  </varray>
  <nose>
   <v>      -3.00000000       0.00000000       0.00010000       0.00010000 </v>
  </nose>
 </structure>
 <calculation>
  <scstep>
   <time name="dav">    9.01    9.01</time>
   <time name="total">    9.03    9.04</time>
   <energy>
    <i name="alphaZ">    303.52543553 </i>
    <i name="ewald">  98869.78256194 </i>
    <i name="hartreedc">-110941.68405955 </i>
    <i name="XCdc">     46.22674298 </i>
    <i name="pawpsdc">  11171.21661038 </i>
    <i name="pawaedc"> -10711.84633960 </i>
    <i name="eentropy">     -0.00524021 </i>
    <i name="bandstr">    546.57029310 </i>
    <i name="atom">  11693.69420960 </i>
    <i name="e_fr_energy">    977.48021417 </i>
    <i name="e_wo_entrp">    977.48545439 </i>
    <i name="e_0_energy">    977.48196091 </i>
   </energy>
  </scstep>
  <scstep>
   <time name="dav">   12.85   12.85</time>
   <time name="total">   12.85   12.85</time>
   <energy>
    <i name="e_fr_energy">    -38.18969249 </i>
    <i name="e_wo_entrp">    -38.19809416 </i>
    <i name="e_0_energy">    -38.19249304 </i>
   </energy>
  </scstep>
  <scstep>
   <time name="dav">   11.03   11.03</time>
   <time name="total">   11.03   11.03</time>
   <energy>
    <i name="e_fr_energy">    -96.71998984 </i>
    <i name="e_wo_entrp">    -96.71351741 </i>
    <i name="e_0_energy">    -96.71783236 </i>
   </energy>
  </scstep>
  <scstep>
   <time name="dav">   12.60   12.60</time>
   <time name="total">   12.60   12.60</time>
   <energy>
    <i name="e_fr_energy">    -97.99430594 </i>
    <i name="e_wo_entrp">    -97.98692729 </i>
    <i name="e_0_energy">    -97.99184639 </i>
   </energy>
  </scstep>
  <scstep>
   <time name="dav">   13.16   13.16</time>
   <time name="total">   13.48   13.48</time>
   <energy>
    <i name="e_fr_energy">    -98.02509182 </i>
    <i name="e_wo_entrp">    -98.01773294 </i>
    <i name="e_0_energy">    -98.02263886 </i>
   </energy>
  </scstep>
  <scstep>
   <time name="dav">   10.79   10.79</time>
   <time name="total">   11.13   11.13</time>
   <energy>
    <i name="e_fr_energy">    -95.28809776 </i>
    <i name="e_wo_entrp">    -95.29203692 </i>
    <i name="e_0_energy">    -95.28941081 </i>
   </energy>
  </scstep>
  <scstep>
   <time name="dav">   13.04   13.04</time>
   <time name="total">   13.37   13.38</time>
   <energy>
    <i name="e_fr_energy">   -148.39043867 </i>
    <i name="e_wo_entrp">   -148.37445348 </i>
    <i name="e_0_energy">   -148.38511027 </i>
   </energy>
  </scstep>
  <scstep>
   <time name="dav">   13.75   13.76</time>
   <time name="total">   14.09   14.09</time>
   <energy>
    <i name="e_fr_energy">   -122.18094248 </i>
    <i name="e_wo_entrp">   -122.17333660 </i>
    <i name="e_0_energy">   -122.17840719 </i>
   </energy>
  </scstep>
  <scstep>
   <time name="dav">   14.08   14.08</time>
   <time name="total">   14.42   14.42</time>
   <energy>
    <i name="e_fr_energy">   -114.02912374 </i>
    <i name="e_wo_entrp">   -114.02123709 </i>
    <i name="e_0_energy">   -114.02649486 </i>
   </energy>
  </scstep>
  <scstep>
   <time name="dav">   12.84   12.84</time>
   <time name="total">   13.18   13.19</time>
   <energy>
    <i name="e_fr_energy">    -94.39525773 </i>
    <i name="e_wo_entrp">    -94.40115063 </i>
    <i name="e_0_energy">    -94.39722203 </i>
   </energy>
  </scstep>
  <scstep>
   <time name="dav">   12.37   12.37</time>
   <time name="total">   12.71   12.71</time>
   <energy>
    <i name="e_fr_energy">    -92.68061461 </i>
    <i name="e_wo_entrp">    -92.64439265 </i>
    <i name="e_0_energy">    -92.66854063 </i>
   </energy>
  </scstep>
  <scstep>
   <time name="dav">   13.47   13.47</time>
   <time name="total">   13.81   13.82</time>
   <energy>
    <i name="e_fr_energy">    -92.00514646 </i>
    <i name="e_wo_entrp">    -91.99517370 </i>
    <i name="e_0_energy">    -92.00182221 </i>
   </energy>
  </scstep>
  <scstep>
   <time name="dav">   12.01   12.01</time>
   <time name="total">   12.35   12.35</time>
   <energy>
    <i name="e_fr_energy">    -91.88125694 </i>
    <i name="e_wo_entrp">    -91.86956719 </i>
    <i name="e_0_energy">    -91.87736036 </i>
   </energy>
  </scstep>
  <scstep>
   <time name="dav">   11.98   11.98</time>
   <time name="total">   12.32   12.32</time>
   <energy>
    <i name="e_fr_energy">    -91.81785960 </i>
    <i name="e_wo_entrp">    -91.80388226 </i>
    <i name="e_0_energy">    -91.81320049 </i>
   </energy>
  </scstep>
  <scstep>
   <time name="dav">   11.73   11.73</time>
   <time name="total">   12.07   12.07</time>
   <energy>
    <i name="e_fr_energy">    -91.82744592 </i>
    <i name="e_wo_entrp">    -91.81105888 </i>
    <i name="e_0_energy">    -91.82198358 </i>
   </energy>
  </scstep>
  <scstep>
   <time name="dav">   10.97   10.97</time>
   <time name="total">   11.31   11.31</time>
   <energy>
    <i name="e_fr_energy">    -91.77235893 </i>
    <i name="e_wo_entrp">    -91.75851945 </i>
    <i name="e_0_energy">    -91.76774577 </i>
   </energy>
  </scstep>
  <scstep>
   <time name="dav">   12.14   12.14</time>
   <time name="total">   12.48   12.48</time>
   <energy>
    <i name="e_fr_energy">    -91.76171219 </i>
    <i name="e_wo_entrp">    -91.74656949 </i>
    <i name="e_0_energy">    -91.75666462 </i>
   </energy>
  </scstep>
  <scstep>
   <time name="dav">   10.77   10.77</time>
   <time name="total">   11.11   11.11</time>
   <energy>
    <i name="e_fr_energy">    -91.76004548 </i>
    <i name="e_wo_entrp">    -91.74656972 </i>
    <i name="e_0_energy">    -91.75555356 </i>
   </energy>
  </scstep>
  <scstep>
   <time name="dav">   10.95   10.96</time>
   <time name="total">   11.29   11.30</time>
   <energy>
    <i name="e_fr_energy">    -91.75906441 </i>
    <i name="e_wo_entrp">    -91.74450072 </i>
    <i name="e_0_energy">    -91.75420985 </i>
   </energy>
  </scstep>
  <scstep>
   <time name="dav">   12.43   12.43</time>
   <time name="total">   12.77   12.77</time>
   <energy>
    <i name="e_fr_energy">    -91.75750318 </i>
    <i name="e_wo_entrp">    -91.74393438 </i>
    <i name="e_0_energy">    -91.75298024 </i>
   </energy>
  </scstep>
  <scstep>
   <time name="dav">   11.07   11.07</time>
   <time name="total">   11.41   11.42</time>
   <energy>
    <i name="e_fr_energy">    -91.75722729 </i>
    <i name="e_wo_entrp">    -91.74356759 </i>
    <i name="e_0_energy">    -91.75267406 </i>
   </energy>
  </scstep>
  <scstep>
   <time name="dav">   11.55   11.55</time>
   <time name="total">   11.89   11.89</time>
   <energy>
    <i name="e_fr_energy">    -91.75715187 </i>
    <i name="e_wo_entrp">    -91.74327512 </i>
    <i name="e_0_energy">    -91.75252629 </i>
   </energy>
  </scstep>
  <scstep>
   <time name="dav">   10.21   10.21</time>
   <time name="total">   10.55   10.55</time>
   <energy>
    <i name="e_fr_energy">    -91.75714224 </i>
    <i name="e_wo_entrp">    -91.74350077 </i>
    <i name="e_0_energy">    -91.75259508 </i>
   </energy>
  </scstep>
  <scstep>
   <time name="dav">    7.60    7.61</time>
   <time name="total">    7.63    7.63</time>
   <energy>
    <i name="alphaZ">    303.52543553 </i>
    <i name="ewald">  98869.78256194 </i>
    <i name="hartreedc">-110768.88535715 </i>
    <i name="XCdc">     40.61295057 </i>
    <i name="pawpsdc">  14203.06436545 </i>
    <i name="pawaedc"> -13787.90937724 </i>
    <i name="eentropy">     -0.01373558 </i>
    <i name="bandstr">   -645.62819065 </i>
    <i name="atom">  11693.69420960 </i>
    <i name="e_fr_energy">    -91.75713753 </i>
    <i name="e_wo_entrp">    -91.74340195 </i>
    <i name="e_0_energy">    -91.75255901 </i>
   </energy>
  </scstep>
  <dipole>
   <v name="dipole">      0.00000000       0.00000000       0.00590515 </v>
   <i name="Tr[quadrupol]">   -955.37159022 </i>
   <i name="Echarged">      0.00000000 </i>
   <i name="Edipol_quadrupol">      0.00000000 </i>
   <i name="Eion">      0.00000000 </i>
  </dipole>
  <structure>
   <crystal>
    <varray name="basis" >
     <v>       5.55785930       0.00000000       0.00000000 </v>
     <v>       2.77892965       4.81324734       0.00000000 </v>
     <v>       0.00000000       0.00000000      30.80695967 </v>
    </varray>
    <i name="volume">    824.12780743 </i>
    <varray name="rec_basis" >
     <v>       0.17992539      -0.10387997       0.00000000 </v>
     <v>       0.00000000       0.20775994       0.00000000 </v>
     <v>       0.00000000       0.00000000       0.03246020 </v>
    </varray>
   </crystal>
   <varray name="positions" >
    <v>       0.00000000       0.00000000       0.38952237 </v>
    <v>       0.50000000       0.00000000       0.38952237 </v>
    <v>       0.00000000       0.50000000       0.38952237 </v>
    <v>       0.50000000       0.50000000       0.38952237 </v>
    <v>       0.16666667       0.16666667       0.46468540 </v>
    <v>       0.66666667       0.16666667       0.46468540 </v>
    <v>       0.16666667       0.66666667       0.46468540 </v>
    <v>       0.66666667       0.66666667       0.46468540 </v>
    <v>       0.33333333       0.33333333       0.53920296 </v>
    <v>       0.83333333       0.83333333       0.53920296 </v>
    <v>       0.33333333       0.83333333       0.53920296 </v>
    <v>       0.00000000       0.00000000       0.61486043 </v>
    <v>       0.50000000       0.00000000       0.61486043 </v>
    <v>       0.00000000       0.50000000       0.61486043 </v>
    <v>       0.50000000       0.50000000       0.61486043 </v>
    <v>       0.83333333       0.33333333       0.53920296 </v>
   </varray>
  </structure>
  <varray name="forces" >
   <v>      -0.00000000       0.03290673       1.11890825 </v>
   <v>      -0.00000000       0.02140584      -0.39719362 </v>
   <v>      -0.00337346      -0.03106022      -0.10811329 </v>
   <v>       0.00337346      -0.03106022      -0.10811329 </v>
   <v>      -0.01844756      -0.19192718      -0.41282883 </v>
   <v>       0.01844756      -0.19192718      -0.41282883 </v>
   <v>       0.00000000       0.18036078      -0.20611312 </v>
   <v>       0.00000000       0.18113203      -0.07437123 </v>
   <v>      -0.00000000       0.03436733      -0.15856785 </v>
   <v>       0.02035218      -0.00704915       0.07308170 </v>
   <v>      -0.02035218      -0.00704915       0.07308170 </v>
   <v>       0.00000000      -0.12260993       0.15126688 </v>
   <v>      -0.00000000       0.02771633      -0.06125170 </v>
   <v>       0.12724652       0.04811574       0.15507293 </v>
   <v>      -0.12724652       0.04811574       0.15507293 </v>
   <v>       0.00000000       0.00856252       0.21289737 </v>
  </varray>
  <varray name="stress" >
   <v>     -21.60288095       0.00000000       0.00000000 </v>
   <v>       0.00000000     -21.63317237       0.17741847 </v>
   <v>       0.00000000       0.17741886       0.08346231 </v>
  </varray>
  <energy>
   <i name="e_fr_energy">    -91.75713370 </i>
   <i name="e_wo_entrp">    -91.75255518 </i>
   <i name="e_0_energy">     -0.01373558 </i>
  </energy>
  <time name="totalsc">  301.45  301.54</time>
  <eigenvalues>
   <array>
    <dimension dim="1">band</dimension>
    <dimension dim="2">kpoint</dimension>
    <dimension dim="3">spin</dimension>
    <field>eigene</field>
    <field>occ</field>
    <set>
     <set comment="spin 1">
      <set comment="kpoint 1">
       <r>  -10.2524    1.0000 </r>
       <r>   -8.9421    1.0000 </r>
       <r>   -7.8418    1.0000 </r>
       <r>   -7.7942    1.0000 </r>
       <r>   -7.5811    1.0000 </r>
       <r>   -7.5661    1.0000 </r>
       <r>   -7.4934    1.0000 </r>
       <r>   -7.4351    1.0000 </r>
       <r>   -7.4265    1.0000 </r>
       <r>   -7.3246    1.0000 </r>
       <r>   -6.9762    1.0000 </r>
       <r>   -6.9641    1.0000 </r>
       <r>   -6.9057    1.0000 </r>
       <r>   -6.6711    1.0000 </r>
       <r>   -6.6482    1.0000 </r>
       <r>   -6.6195    1.0000 </r>
       <r>   -6.5297    1.0000 </r>
       <r>   -6.5081    1.0000 </r>
       <r>   -6.5033    1.0000 </r>
       <r>   -5.7618    1.0000 </r>
       <r>   -5.7491    1.0000 </r>
       <r>   -5.6889    1.0000 </r>
       <r>   -4.9859    1.0000 </r>
       <r>   -4.8463    1.0000 </r>
       <r>   -4.8441    1.0000 </r>
       <r>   -4.7455    1.0000 </r>
       <r>   -4.7396    1.0000 </r>
       <r>   -4.7164    1.0000 </r>
       <r>   -4.6605    1.0000 </r>
       <r>   -4.5621    1.0000 </r>
       <r>   -4.4829    1.0000 </r>
       <r>   -4.4728    1.0000 </r>
       <r>   -4.3419    1.0000 </r>
       <r>   -4.3176    1.0000 </r>
       <r>   -4.1766    1.0000 </r>
       <r>   -4.1650    1.0000 </r>
       <r>   -3.9803    1.0000 </r>
       <r>   -3.8415    1.0000 </r>
       <r>   -3.7977    1.0000 </r>
       <r>   -3.7735    1.0000 </r>
       <r>   -3.7084    1.0000 </r>
       <r>   -3.5971    1.0000 </r>
       <r>   -3.5505    1.0000 </r>
       <r>   -3.4890    1.0000 </r>
       <r>   -3.4133    1.0000 </r>
       <r>   -3.1468    1.0000 </r>
       <r>   -3.0558    1.0000 </r>
       <r>   -2.9582    1.0000 </r>
       <r>   -2.9011    1.0000 </r>
       <r>   -2.8356    1.0000 </r>
       <r>   -2.7313    1.0000 </r>
       <r>   -2.4861    1.0000 </r>
       <r>   -2.4802    1.0000 </r>
       <r>   -2.0301    1.0000 </r>
       <r>   -1.9962    1.0000 </r>
       <r>   -1.8022    1.0000 </r>
       <r>   -1.7109    1.0000 </r>
       <r>   -1.6908    1.0000 </r>
       <r>   -1.6622    1.0000 </r>
       <r>   -1.6380    1.0000 </r>
       <r>   -1.5687    1.0000 </r>
       <r>   -1.5120    1.0000 </r>
       <r>   -1.2798    1.0068 </r>
       <r>   -1.2537    1.0104 </r>
       <r>   -1.1974    1.0215 </r>
       <r>   -1.1761    1.0264 </r>
       <r>   -1.1296    1.0348 </r>
       <r>   -1.1010    1.0346 </r>
       <r>   -1.0447    1.0062 </r>
       <r>   -0.9916    0.9226 </r>
       <r>   -0.9642    0.8526 </r>
       <r>   -0.9401    0.7760 </r>
       <r>   -0.8008    0.2243 </r>
       <r>   -0.7698    0.1281 </r>
       <r>   -0.7298    0.0390 </r>
       <r>   -0.7056    0.0041 </r>
       <r>   -0.6420   -0.0343 </r>
       <r>   -0.5258   -0.0175 </r>
       <r>   -0.4095   -0.0026 </r>
       <r>   -0.3408   -0.0006 </r>
       <r>   -0.3107   -0.0003 </r>
       <r>   -0.2434   -0.0000 </r>
       <r>   -0.1092   -0.0000 </r>
       <r>   -0.0381   -0.0000 </r>
       <r>    0.0131   -0.0000 </r>
       <r>    0.0304   -0.0000 </r>
       <r>    0.3359   -0.0000 </r>
       <r>    0.4131   -0.0000 </r>
       <r>    1.1169   -0.0000 </r>
       <r>    1.4712   -0.0000 </r>
       <r>    1.5212   -0.0000 </r>
       <r>    1.6149   -0.0000 </r>
       <r>    1.7295   -0.0000 </r>
       <r>    1.7708   -0.0000 </r>
       <r>    2.4815   -0.0000 </r>
       <r>    2.5254   -0.0000 </r>
      </set>
      <set comment="kpoint 2">
       <r>  -10.2524    1.0000 </r>
       <r>   -8.9421    1.0000 </r>
       <r>   -7.8418    1.0000 </r>
       <r>   -7.7942    1.0000 </r>
       <r>   -7.5844    1.0000 </r>
       <r>   -7.5617    1.0000 </r>
       <r>   -7.4945    1.0000 </r>
       <r>   -7.4347    1.0000 </r>
       <r>   -7.4268    1.0000 </r>
       <r>   -7.3247    1.0000 </r>
       <r>   -6.9763    1.0000 </r>
       <r>   -6.9638    1.0000 </r>
       <r>   -6.9058    1.0000 </r>
       <r>   -6.6751    1.0000 </r>
       <r>   -6.6385    1.0000 </r>
       <r>   -6.6250    1.0000 </r>
       <r>   -6.5282    1.0000 </r>
       <r>   -6.5142    1.0000 </r>
       <r>   -6.4989    1.0000 </r>
       <r>   -5.7606    1.0000 </r>
       <r>   -5.7500    1.0000 </r>
       <r>   -5.6892    1.0000 </r>
       <r>   -4.9865    1.0000 </r>
       <r>   -4.8447    1.0000 </r>
       <r>   -4.8412    1.0000 </r>
       <r>   -4.7600    1.0000 </r>
       <r>   -4.7274    1.0000 </r>
       <r>   -4.7162    1.0000 </r>
       <r>   -4.6623    1.0000 </r>
       <r>   -4.5617    1.0000 </r>
       <r>   -4.4792    1.0000 </r>
       <r>   -4.4774    1.0000 </r>
       <r>   -4.3455    1.0000 </r>
       <r>   -4.3142    1.0000 </r>
       <r>   -4.1717    1.0000 </r>
       <r>   -4.1695    1.0000 </r>
       <r>   -3.9804    1.0000 </r>
       <r>   -3.8396    1.0000 </r>
       <r>   -3.7995    1.0000 </r>
       <r>   -3.7726    1.0000 </r>
       <r>   -3.7095    1.0000 </r>
       <r>   -3.5976    1.0000 </r>
       <r>   -3.5545    1.0000 </r>
       <r>   -3.4817    1.0000 </r>
       <r>   -3.4163    1.0000 </r>
       <r>   -3.1105    1.0000 </r>
       <r>   -3.1081    1.0000 </r>
       <r>   -2.9455    1.0000 </r>
       <r>   -2.9081    1.0000 </r>
       <r>   -2.7983    1.0000 </r>
       <r>   -2.7576    1.0000 </r>
       <r>   -2.4842    1.0000 </r>
       <r>   -2.4818    1.0000 </r>
       <r>   -2.0195    1.0000 </r>
       <r>   -2.0104    1.0000 </r>
       <r>   -1.7965    1.0000 </r>
       <r>   -1.7172    1.0000 </r>
       <r>   -1.6767    1.0000 </r>
       <r>   -1.6679    1.0000 </r>
       <r>   -1.6400    1.0000 </r>
       <r>   -1.5786    1.0000 </r>
       <r>   -1.5024    1.0000 </r>
       <r>   -1.2578    1.0098 </r>
       <r>   -1.2433    1.0121 </r>
       <r>   -1.2237    1.0157 </r>
       <r>   -1.1913    1.0229 </r>
       <r>   -1.1501    1.0318 </r>
       <r>   -1.1099    1.0353 </r>
       <r>   -1.0216    0.9778 </r>
       <r>   -1.0138    0.9656 </r>
       <r>   -0.9410    0.7788 </r>
       <r>   -0.9064    0.6493 </r>
       <r>   -0.8106    0.2589 </r>
       <r>   -0.7701    0.1289 </r>
       <r>   -0.7560    0.0930 </r>
       <r>   -0.6697   -0.0255 </r>
       <r>   -0.6658   -0.0274 </r>
       <r>   -0.5248   -0.0173 </r>
       <r>   -0.4030   -0.0023 </r>
       <r>   -0.3452   -0.0006 </r>
       <r>   -0.3087   -0.0003 </r>
       <r>   -0.2437   -0.0000 </r>
       <r>   -0.1104   -0.0000 </r>
       <r>   -0.0367   -0.0000 </r>
       <r>    0.0153   -0.0000 </r>
       <r>    0.0254   -0.0000 </r>
       <r>    0.3369   -0.0000 </r>
       <r>    0.4098   -0.0000 </r>
       <r>    1.1163   -0.0000 </r>
       <r>    1.4769   -0.0000 </r>
       <r>    1.5363   -0.0000 </r>
       <r>    1.5939   -0.0000 </r>
       <r>    1.7369   -0.0000 </r>
       <r>    1.7666   -0.0000 </r>
       <r>    2.4861   -0.0000 </r>
       <r>    2.5189   -0.0000 </r>
      </set>
      <set comment="kpoint 3">
       <r>  -10.0489    1.0000 </r>
       <r>   -8.7406    1.0000 </r>
       <r>   -7.6352    1.0000 </r>
       <r>   -7.6052    1.0000 </r>
       <r>   -7.5472    1.0000 </r>
       <r>   -7.4703    1.0000 </r>
       <r>   -7.3582    1.0000 </r>
       <r>   -7.3299    1.0000 </r>
       <r>   -7.2897    1.0000 </r>
       <r>   -7.1807    1.0000 </r>
       <r>   -6.8722    1.0000 </r>
       <r>   -6.8654    1.0000 </r>
       <r>   -6.8142    1.0000 </r>
       <r>   -6.6201    1.0000 </r>
       <r>   -6.5531    1.0000 </r>
       <r>   -6.4442    1.0000 </r>
       <r>   -6.4249    1.0000 </r>
       <r>   -6.3768    1.0000 </r>
       <r>   -6.3027    1.0000 </r>
       <r>   -5.7053    1.0000 </r>
       <r>   -5.6864    1.0000 </r>
       <r>   -5.6304    1.0000 </r>
       <r>   -4.9954    1.0000 </r>
       <r>   -4.9219    1.0000 </r>
       <r>   -4.8511    1.0000 </r>
       <r>   -4.8415    1.0000 </r>
       <r>   -4.7492    1.0000 </r>
       <r>   -4.6906    1.0000 </r>
       <r>   -4.6597    1.0000 </r>
       <r>   -4.5884    1.0000 </r>
       <r>   -4.5300    1.0000 </r>
       <r>   -4.3548    1.0000 </r>
       <r>   -4.2465    1.0000 </r>
       <r>   -4.2226    1.0000 </r>
       <r>   -4.1538    1.0000 </r>
       <r>   -4.1099    1.0000 </r>
       <r>   -3.9739    1.0000 </r>
       <r>   -3.9553    1.0000 </r>
       <r>   -3.9351    1.0000 </r>
       <r>   -3.7336    1.0000 </r>
       <r>   -3.7037    1.0000 </r>
       <r>   -3.6764    1.0000 </r>
       <r>   -3.6382    1.0000 </r>
       <r>   -3.5871    1.0000 </r>
       <r>   -3.5590    1.0000 </r>
       <r>   -3.4572    1.0000 </r>
       <r>   -3.2707    1.0000 </r>
       <r>   -3.1384    1.0000 </r>
       <r>   -2.9178    1.0000 </r>
       <r>   -2.8243    1.0000 </r>
       <r>   -2.6915    1.0000 </r>
       <r>   -2.5730    1.0000 </r>
       <r>   -2.5258    1.0000 </r>
       <r>   -2.1658    1.0000 </r>
       <r>   -2.0068    1.0000 </r>
       <r>   -1.9754    1.0000 </r>
       <r>   -1.9438    1.0000 </r>
       <r>   -1.9174    1.0000 </r>
       <r>   -1.8941    1.0000 </r>
       <r>   -1.8013    1.0000 </r>
       <r>   -1.7689    1.0000 </r>
       <r>   -1.7215    1.0000 </r>
       <r>   -1.6673    1.0000 </r>
       <r>   -1.6231    1.0000 </r>
       <r>   -1.5677    1.0000 </r>
       <r>   -1.4867    1.0001 </r>
       <r>   -1.3245    1.0030 </r>
       <r>   -1.2907    1.0057 </r>
       <r>   -1.1967    1.0216 </r>
       <r>   -1.1335    1.0343 </r>
       <r>   -1.1204    1.0354 </r>
       <r>   -1.0953    1.0337 </r>
       <r>   -1.0070    0.9537 </r>
       <r>   -0.9693    0.8669 </r>
       <r>   -0.9289    0.7359 </r>
       <r>   -0.8530    0.4267 </r>
       <r>   -0.8433    0.3862 </r>
       <r>   -0.7895    0.1867 </r>
       <r>   -0.7447    0.0676 </r>
       <r>   -0.6643   -0.0280 </r>
       <r>   -0.5853   -0.0308 </r>
       <r>   -0.4439   -0.0051 </r>
       <r>   -0.4067   -0.0025 </r>
       <r>   -0.2898   -0.0002 </r>
       <r>   -0.2284   -0.0000 </r>
       <r>    0.1317   -0.0000 </r>
       <r>    0.2375   -0.0000 </r>
       <r>    0.7774   -0.0000 </r>
       <r>    0.8185   -0.0000 </r>
       <r>    1.0843   -0.0000 </r>
       <r>    1.2484   -0.0000 </r>
       <r>    1.6142   -0.0000 </r>
       <r>    2.0805   -0.0000 </r>
       <r>    2.5207   -0.0000 </r>
       <r>    2.9389   -0.0000 </r>
       <r>    3.3123   -0.0000 </r>
      </set>
      <set comment="kpoint 4">
       <r>  -10.0489    1.0000 </r>
       <r>   -8.7406    1.0000 </r>
       <r>   -7.6352    1.0000 </r>
       <r>   -7.6054    1.0000 </r>
       <r>   -7.5485    1.0000 </r>
       <r>   -7.4677    1.0000 </r>
       <r>   -7.3581    1.0000 </r>
       <r>   -7.3313    1.0000 </r>
       <r>   -7.2893    1.0000 </r>
       <r>   -7.1814    1.0000 </r>
       <r>   -6.8756    1.0000 </r>
       <r>   -6.8612    1.0000 </r>
       <r>   -6.8149    1.0000 </r>
       <r>   -6.6204    1.0000 </r>
       <r>   -6.5524    1.0000 </r>
       <r>   -6.4382    1.0000 </r>
       <r>   -6.4315    1.0000 </r>
       <r>   -6.3769    1.0000 </r>
       <r>   -6.3023    1.0000 </r>
       <r>   -5.7032    1.0000 </r>
       <r>   -5.6869    1.0000 </r>
       <r>   -5.6320    1.0000 </r>
       <r>   -4.9962    1.0000 </r>
       <r>   -4.9191    1.0000 </r>
       <r>   -4.8487    1.0000 </r>
       <r>   -4.8389    1.0000 </r>
       <r>   -4.7523    1.0000 </r>
       <r>   -4.6835    1.0000 </r>
       <r>   -4.6661    1.0000 </r>
       <r>   -4.5926    1.0000 </r>
       <r>   -4.5355    1.0000 </r>
       <r>   -4.3560    1.0000 </r>
       <r>   -4.2401    1.0000 </r>
       <r>   -4.2271    1.0000 </r>
       <r>   -4.1461    1.0000 </r>
       <r>   -4.1127    1.0000 </r>
       <r>   -3.9791    1.0000 </r>
       <r>   -3.9533    1.0000 </r>
       <r>   -3.9327    1.0000 </r>
       <r>   -3.7380    1.0000 </r>
       <r>   -3.6915    1.0000 </r>
       <r>   -3.6710    1.0000 </r>
       <r>   -3.6518    1.0000 </r>
       <r>   -3.5888    1.0000 </r>
       <r>   -3.5611    1.0000 </r>
       <r>   -3.4526    1.0000 </r>
       <r>   -3.2714    1.0000 </r>
       <r>   -3.1471    1.0000 </r>
       <r>   -2.8964    1.0000 </r>
       <r>   -2.8312    1.0000 </r>
       <r>   -2.6914    1.0000 </r>
       <r>   -2.5760    1.0000 </r>
       <r>   -2.5268    1.0000 </r>
       <r>   -2.1562    1.0000 </r>
       <r>   -2.0394    1.0000 </r>
       <r>   -1.9807    1.0000 </r>
       <r>   -1.9336    1.0000 </r>
       <r>   -1.9032    1.0000 </r>
       <r>   -1.8602    1.0000 </r>
       <r>   -1.8251    1.0000 </r>
       <r>   -1.7820    1.0000 </r>
       <r>   -1.7305    1.0000 </r>
       <r>   -1.6569    1.0000 </r>
       <r>   -1.6131    1.0000 </r>
       <r>   -1.5644    1.0000 </r>
       <r>   -1.4955    1.0000 </r>
       <r>   -1.3221    1.0032 </r>
       <r>   -1.2946    1.0053 </r>
       <r>   -1.2068    1.0193 </r>
       <r>   -1.1297    1.0347 </r>
       <r>   -1.1130    1.0354 </r>
       <r>   -1.0888    1.0322 </r>
       <r>   -0.9929    0.9255 </r>
       <r>   -0.9828    0.9022 </r>
       <r>   -0.9080    0.6558 </r>
       <r>   -0.8693    0.4952 </r>
       <r>   -0.8398    0.3722 </r>
       <r>   -0.7989    0.2177 </r>
       <r>   -0.7451    0.0684 </r>
       <r>   -0.6579   -0.0305 </r>
       <r>   -0.6171   -0.0352 </r>
       <r>   -0.4469   -0.0054 </r>
       <r>   -0.3945   -0.0019 </r>
       <r>   -0.2830   -0.0001 </r>
       <r>   -0.2255   -0.0000 </r>
       <r>    0.1343   -0.0000 </r>
       <r>    0.2368   -0.0000 </r>
       <r>    0.7796   -0.0000 </r>
       <r>    0.8172   -0.0000 </r>
       <r>    1.0822   -0.0000 </r>
       <r>    1.2496   -0.0000 </r>
       <r>    1.6148   -0.0000 </r>
       <r>    2.0805   -0.0000 </r>
       <r>    2.5198   -0.0000 </r>
       <r>    2.9385   -0.0000 </r>
       <r>    3.3134   -0.0000 </r>
      </set>
      <set comment="kpoint 5">
       <r>  -10.0489    1.0000 </r>
       <r>   -8.7406    1.0000 </r>
       <r>   -7.6352    1.0000 </r>
       <r>   -7.6055    1.0000 </r>
       <r>   -7.5490    1.0000 </r>
       <r>   -7.4664    1.0000 </r>
       <r>   -7.3585    1.0000 </r>
       <r>   -7.3306    1.0000 </r>
       <r>   -7.2901    1.0000 </r>
       <r>   -7.1817    1.0000 </r>
       <r>   -6.8760    1.0000 </r>
       <r>   -6.8603    1.0000 </r>
       <r>   -6.8153    1.0000 </r>
       <r>   -6.6220    1.0000 </r>
       <r>   -6.5494    1.0000 </r>
       <r>   -6.4455    1.0000 </r>
       <r>   -6.4241    1.0000 </r>
       <r>   -6.3786    1.0000 </r>
       <r>   -6.3021    1.0000 </r>
       <r>   -5.6977    1.0000 </r>
       <r>   -5.6913    1.0000 </r>
       <r>   -5.6330    1.0000 </r>
       <r>   -4.9986    1.0000 </r>
       <r>   -4.9149    1.0000 </r>
       <r>   -4.8493    1.0000 </r>
       <r>   -4.8362    1.0000 </r>
       <r>   -4.7539    1.0000 </r>
       <r>   -4.6825    1.0000 </r>
       <r>   -4.6676    1.0000 </r>
       <r>   -4.5926    1.0000 </r>
       <r>   -4.5402    1.0000 </r>
       <r>   -4.3549    1.0000 </r>
       <r>   -4.2406    1.0000 </r>
       <r>   -4.2261    1.0000 </r>
       <r>   -4.1464    1.0000 </r>
       <r>   -4.1117    1.0000 </r>
       <r>   -3.9779    1.0000 </r>
       <r>   -3.9521    1.0000 </r>
       <r>   -3.9350    1.0000 </r>
       <r>   -3.7383    1.0000 </r>
       <r>   -3.6917    1.0000 </r>
       <r>   -3.6735    1.0000 </r>
       <r>   -3.6445    1.0000 </r>
       <r>   -3.5952    1.0000 </r>
       <r>   -3.5615    1.0000 </r>
       <r>   -3.4467    1.0000 </r>
       <r>   -3.2859    1.0000 </r>
       <r>   -3.1350    1.0000 </r>
       <r>   -2.9067    1.0000 </r>
       <r>   -2.8068    1.0000 </r>
       <r>   -2.7032    1.0000 </r>
       <r>   -2.5762    1.0000 </r>
       <r>   -2.5285    1.0000 </r>
       <r>   -2.1548    1.0000 </r>
       <r>   -2.0398    1.0000 </r>
       <r>   -1.9808    1.0000 </r>
       <r>   -1.9273    1.0000 </r>
       <r>   -1.9106    1.0000 </r>
       <r>   -1.8747    1.0000 </r>
       <r>   -1.8220    1.0000 </r>
       <r>   -1.7630    1.0000 </r>
       <r>   -1.7521    1.0000 </r>
       <r>   -1.6396    1.0000 </r>
       <r>   -1.6109    1.0000 </r>
       <r>   -1.5591    1.0000 </r>
       <r>   -1.5045    1.0000 </r>
       <r>   -1.3107    1.0040 </r>
       <r>   -1.2983    1.0050 </r>
       <r>   -1.2277    1.0150 </r>
       <r>   -1.1525    1.0314 </r>
       <r>   -1.0977    1.0341 </r>
       <r>   -1.0731    1.0264 </r>
       <r>   -1.0156    0.9686 </r>
       <r>   -0.9560    0.8278 </r>
       <r>   -0.9137    0.6783 </r>
       <r>   -0.8635    0.4708 </r>
       <r>   -0.8233    0.3065 </r>
       <r>   -0.8117    0.2630 </r>
       <r>   -0.7471    0.0727 </r>
       <r>   -0.6834   -0.0170 </r>
       <r>   -0.5638   -0.0262 </r>
       <r>   -0.4654   -0.0074 </r>
       <r>   -0.4092   -0.0026 </r>
       <r>   -0.2844   -0.0001 </r>
       <r>   -0.2259   -0.0000 </r>
       <r>    0.1330   -0.0000 </r>
       <r>    0.2415   -0.0000 </r>
       <r>    0.7763   -0.0000 </r>
       <r>    0.8193   -0.0000 </r>
       <r>    1.0817   -0.0000 </r>
       <r>    1.2542   -0.0000 </r>
       <r>    1.6132   -0.0000 </r>
       <r>    2.0789   -0.0000 </r>
       <r>    2.5201   -0.0000 </r>
       <r>    2.9387   -0.0000 </r>
       <r>    3.3126   -0.0000 </r>
      </set>
      <set comment="kpoint 6">
       <r>   -9.5963    1.0000 </r>
       <r>   -8.3052    1.0000 </r>
       <r>   -7.6300    1.0000 </r>
       <r>   -7.2530    1.0000 </r>
       <r>   -7.2067    1.0000 </r>
       <r>   -7.1925    1.0000 </r>
       <r>   -7.1769    1.0000 </r>
       <r>   -7.0111    1.0000 </r>
       <r>   -7.0032    1.0000 </r>
       <r>   -6.8844    1.0000 </r>
       <r>   -6.6906    1.0000 </r>
       <r>   -6.6303    1.0000 </r>
       <r>   -6.5845    1.0000 </r>
       <r>   -6.5344    1.0000 </r>
       <r>   -6.2922    1.0000 </r>
       <r>   -6.2705    1.0000 </r>
       <r>   -6.1052    1.0000 </r>
       <r>   -6.0229    1.0000 </r>
       <r>   -5.9081    1.0000 </r>
       <r>   -5.5768    1.0000 </r>
       <r>   -5.5501    1.0000 </r>
       <r>   -5.5074    1.0000 </r>
       <r>   -5.1580    1.0000 </r>
       <r>   -5.1047    1.0000 </r>
       <r>   -5.0206    1.0000 </r>
       <r>   -4.9632    1.0000 </r>
       <r>   -4.8828    1.0000 </r>
       <r>   -4.7329    1.0000 </r>
       <r>   -4.5908    1.0000 </r>
       <r>   -4.5260    1.0000 </r>
       <r>   -4.3922    1.0000 </r>
       <r>   -4.2958    1.0000 </r>
       <r>   -4.2582    1.0000 </r>
       <r>   -4.2056    1.0000 </r>
       <r>   -4.1558    1.0000 </r>
       <r>   -4.1159    1.0000 </r>
       <r>   -4.0882    1.0000 </r>
       <r>   -4.0252    1.0000 </r>
       <r>   -3.9939    1.0000 </r>
       <r>   -3.9792    1.0000 </r>
       <r>   -3.8849    1.0000 </r>
       <r>   -3.8553    1.0000 </r>
       <r>   -3.8149    1.0000 </r>
       <r>   -3.7671    1.0000 </r>
       <r>   -3.6039    1.0000 </r>
       <r>   -3.4268    1.0000 </r>
       <r>   -3.3921    1.0000 </r>
       <r>   -3.2409    1.0000 </r>
       <r>   -2.9923    1.0000 </r>
       <r>   -2.9310    1.0000 </r>
       <r>   -2.8589    1.0000 </r>
       <r>   -2.7863    1.0000 </r>
       <r>   -2.7222    1.0000 </r>
       <r>   -2.6525    1.0000 </r>
       <r>   -2.6175    1.0000 </r>
       <r>   -2.5997    1.0000 </r>
       <r>   -2.5166    1.0000 </r>
       <r>   -2.4823    1.0000 </r>
       <r>   -2.4110    1.0000 </r>
       <r>   -2.3363    1.0000 </r>
       <r>   -2.2106    1.0000 </r>
       <r>   -2.0794    1.0000 </r>
       <r>   -1.9884    1.0000 </r>
       <r>   -1.9666    1.0000 </r>
       <r>   -1.9014    1.0000 </r>
       <r>   -1.8598    1.0000 </r>
       <r>   -1.7302    1.0000 </r>
       <r>   -1.6645    1.0000 </r>
       <r>   -1.6112    1.0000 </r>
       <r>   -1.5725    1.0000 </r>
       <r>   -1.4797    1.0001 </r>
       <r>   -1.3694    1.0012 </r>
       <r>   -1.3577    1.0015 </r>
       <r>   -1.2862    1.0061 </r>
       <r>   -1.2033    1.0201 </r>
       <r>   -1.1454    1.0327 </r>
       <r>   -1.1107    1.0354 </r>
       <r>   -1.0069    0.9536 </r>
       <r>   -0.9479    0.8021 </r>
       <r>   -0.8854    0.5633 </r>
       <r>   -0.7961    0.2082 </r>
       <r>   -0.7723    0.1351 </r>
       <r>   -0.7321    0.0431 </r>
       <r>   -0.6175   -0.0352 </r>
       <r>   -0.4847   -0.0100 </r>
       <r>    0.2682   -0.0000 </r>
       <r>    0.3781   -0.0000 </r>
       <r>    0.4823   -0.0000 </r>
       <r>    0.9548   -0.0000 </r>
       <r>    1.6354   -0.0000 </r>
       <r>    1.8735   -0.0000 </r>
       <r>    1.9170   -0.0000 </r>
       <r>    2.2979   -0.0000 </r>
       <r>    2.6234   -0.0000 </r>
       <r>    3.2321   -0.0000 </r>
       <r>    3.8697   -0.0000 </r>
      </set>
      <set comment="kpoint 7">
       <r>   -9.5963    1.0000 </r>
       <r>   -8.3052    1.0000 </r>
       <r>   -7.6300    1.0000 </r>
       <r>   -7.2531    1.0000 </r>
       <r>   -7.2069    1.0000 </r>
       <r>   -7.1916    1.0000 </r>
       <r>   -7.1771    1.0000 </r>
       <r>   -7.0120    1.0000 </r>
       <r>   -7.0028    1.0000 </r>
       <r>   -6.8846    1.0000 </r>
       <r>   -6.6898    1.0000 </r>
       <r>   -6.6327    1.0000 </r>
       <r>   -6.5826    1.0000 </r>
       <r>   -6.5342    1.0000 </r>
       <r>   -6.2933    1.0000 </r>
       <r>   -6.2692    1.0000 </r>
       <r>   -6.1055    1.0000 </r>
       <r>   -6.0231    1.0000 </r>
       <r>   -5.9086    1.0000 </r>
       <r>   -5.5775    1.0000 </r>
       <r>   -5.5469    1.0000 </r>
       <r>   -5.5092    1.0000 </r>
       <r>   -5.1549    1.0000 </r>
       <r>   -5.1042    1.0000 </r>
       <r>   -5.0228    1.0000 </r>
       <r>   -4.9635    1.0000 </r>
       <r>   -4.8788    1.0000 </r>
       <r>   -4.7351    1.0000 </r>
       <r>   -4.5941    1.0000 </r>
       <r>   -4.5279    1.0000 </r>
       <r>   -4.3971    1.0000 </r>
       <r>   -4.3030    1.0000 </r>
       <r>   -4.2454    1.0000 </r>
       <r>   -4.2057    1.0000 </r>
       <r>   -4.1644    1.0000 </r>
       <r>   -4.1174    1.0000 </r>
       <r>   -4.0798    1.0000 </r>
       <r>   -4.0308    1.0000 </r>
       <r>   -3.9898    1.0000 </r>
       <r>   -3.9719    1.0000 </r>
       <r>   -3.8834    1.0000 </r>
       <r>   -3.8715    1.0000 </r>
       <r>   -3.8041    1.0000 </r>
       <r>   -3.7619    1.0000 </r>
       <r>   -3.6031    1.0000 </r>
       <r>   -3.4296    1.0000 </r>
       <r>   -3.3959    1.0000 </r>
       <r>   -3.2461    1.0000 </r>
       <r>   -2.9906    1.0000 </r>
       <r>   -2.9225    1.0000 </r>
       <r>   -2.8596    1.0000 </r>
       <r>   -2.7718    1.0000 </r>
       <r>   -2.7413    1.0000 </r>
       <r>   -2.6604    1.0000 </r>
       <r>   -2.6157    1.0000 </r>
       <r>   -2.5928    1.0000 </r>
       <r>   -2.5195    1.0000 </r>
       <r>   -2.4727    1.0000 </r>
       <r>   -2.4143    1.0000 </r>
       <r>   -2.3244    1.0000 </r>
       <r>   -2.2033    1.0000 </r>
       <r>   -2.0853    1.0000 </r>
       <r>   -2.0052    1.0000 </r>
       <r>   -1.9630    1.0000 </r>
       <r>   -1.9102    1.0000 </r>
       <r>   -1.8444    1.0000 </r>
       <r>   -1.7343    1.0000 </r>
       <r>   -1.6698    1.0000 </r>
       <r>   -1.6234    1.0000 </r>
       <r>   -1.5506    1.0000 </r>
       <r>   -1.4854    1.0001 </r>
       <r>   -1.3889    1.0008 </r>
       <r>   -1.3446    1.0020 </r>
       <r>   -1.2914    1.0056 </r>
       <r>   -1.1956    1.0219 </r>
       <r>   -1.1510    1.0317 </r>
       <r>   -1.1107    1.0354 </r>
       <r>   -1.0122    0.9630 </r>
       <r>   -0.9496    0.8078 </r>
       <r>   -0.8788    0.5353 </r>
       <r>   -0.7916    0.1934 </r>
       <r>   -0.7644    0.1137 </r>
       <r>   -0.7399    0.0577 </r>
       <r>   -0.6136   -0.0350 </r>
       <r>   -0.4872   -0.0104 </r>
       <r>    0.2671   -0.0000 </r>
       <r>    0.3795   -0.0000 </r>
       <r>    0.4838   -0.0000 </r>
       <r>    0.9550   -0.0000 </r>
       <r>    1.6353   -0.0000 </r>
       <r>    1.8807   -0.0000 </r>
       <r>    1.9094   -0.0000 </r>
       <r>    2.2975   -0.0000 </r>
       <r>    2.6240   -0.0000 </r>
       <r>    3.2317   -0.0000 </r>
       <r>    3.8686   -0.0000 </r>
      </set>
      <set comment="kpoint 8">
       <r>   -9.5963    1.0000 </r>
       <r>   -8.3052    1.0000 </r>
       <r>   -7.6297    1.0000 </r>
       <r>   -7.2576    1.0000 </r>
       <r>   -7.2045    1.0000 </r>
       <r>   -7.1888    1.0000 </r>
       <r>   -7.1775    1.0000 </r>
       <r>   -7.0152    1.0000 </r>
       <r>   -7.0003    1.0000 </r>
       <r>   -6.8862    1.0000 </r>
       <r>   -6.6931    1.0000 </r>
       <r>   -6.6268    1.0000 </r>
       <r>   -6.5849    1.0000 </r>
       <r>   -6.5341    1.0000 </r>
       <r>   -6.2910    1.0000 </r>
       <r>   -6.2699    1.0000 </r>
       <r>   -6.1059    1.0000 </r>
       <r>   -6.0212    1.0000 </r>
       <r>   -5.9099    1.0000 </r>
       <r>   -5.5637    1.0000 </r>
       <r>   -5.5538    1.0000 </r>
       <r>   -5.5168    1.0000 </r>
       <r>   -5.1565    1.0000 </r>
       <r>   -5.1112    1.0000 </r>
       <r>   -5.0160    1.0000 </r>
       <r>   -4.9514    1.0000 </r>
       <r>   -4.8819    1.0000 </r>
       <r>   -4.7419    1.0000 </r>
       <r>   -4.6015    1.0000 </r>
       <r>   -4.5303    1.0000 </r>
       <r>   -4.4004    1.0000 </r>
       <r>   -4.2768    1.0000 </r>
       <r>   -4.2573    1.0000 </r>
       <r>   -4.1923    1.0000 </r>
       <r>   -4.1579    1.0000 </r>
       <r>   -4.1253    1.0000 </r>
       <r>   -4.0951    1.0000 </r>
       <r>   -4.0337    1.0000 </r>
       <r>   -4.0050    1.0000 </r>
       <r>   -3.9568    1.0000 </r>
       <r>   -3.8886    1.0000 </r>
       <r>   -3.8636    1.0000 </r>
       <r>   -3.8127    1.0000 </r>
       <r>   -3.7440    1.0000 </r>
       <r>   -3.6304    1.0000 </r>
       <r>   -3.4181    1.0000 </r>
       <r>   -3.3943    1.0000 </r>
       <r>   -3.2407    1.0000 </r>
       <r>   -2.9707    1.0000 </r>
       <r>   -2.9369    1.0000 </r>
       <r>   -2.8274    1.0000 </r>
       <r>   -2.7862    1.0000 </r>
       <r>   -2.7524    1.0000 </r>
       <r>   -2.6617    1.0000 </r>
       <r>   -2.6184    1.0000 </r>
       <r>   -2.6020    1.0000 </r>
       <r>   -2.5094    1.0000 </r>
       <r>   -2.4682    1.0000 </r>
       <r>   -2.4322    1.0000 </r>
       <r>   -2.3191    1.0000 </r>
       <r>   -2.1975    1.0000 </r>
       <r>   -2.0683    1.0000 </r>
       <r>   -2.0434    1.0000 </r>
       <r>   -1.9696    1.0000 </r>
       <r>   -1.8848    1.0000 </r>
       <r>   -1.8557    1.0000 </r>
       <r>   -1.7169    1.0000 </r>
       <r>   -1.6671    1.0000 </r>
       <r>   -1.5901    1.0000 </r>
       <r>   -1.5698    1.0000 </r>
       <r>   -1.4827    1.0001 </r>
       <r>   -1.4204    1.0004 </r>
       <r>   -1.3658    1.0013 </r>
       <r>   -1.2706    1.0080 </r>
       <r>   -1.2187    1.0168 </r>
       <r>   -1.1487    1.0321 </r>
       <r>   -1.0704    1.0251 </r>
       <r>   -0.9974    0.9351 </r>
       <r>   -0.9511    0.8125 </r>
       <r>   -0.9127    0.6746 </r>
       <r>   -0.8324    0.3421 </r>
       <r>   -0.7693    0.1267 </r>
       <r>   -0.6609   -0.0294 </r>
       <r>   -0.6058   -0.0342 </r>
       <r>   -0.5324   -0.0190 </r>
       <r>    0.2678   -0.0000 </r>
       <r>    0.3865   -0.0000 </r>
       <r>    0.4895   -0.0000 </r>
       <r>    0.9512   -0.0000 </r>
       <r>    1.6336   -0.0000 </r>
       <r>    1.8766   -0.0000 </r>
       <r>    1.9193   -0.0000 </r>
       <r>    2.2928   -0.0000 </r>
       <r>    2.6225   -0.0000 </r>
       <r>    3.2303   -0.0000 </r>
       <r>    3.8691   -0.0000 </r>
      </set>
      <set comment="kpoint 9">
       <r>   -8.9594    1.0000 </r>
       <r>   -7.9839    1.0000 </r>
       <r>   -7.7422    1.0000 </r>
       <r>   -7.2025    1.0000 </r>
       <r>   -6.9057    1.0000 </r>
       <r>   -6.8126    1.0000 </r>
       <r>   -6.7145    1.0000 </r>
       <r>   -6.6558    1.0000 </r>
       <r>   -6.6165    1.0000 </r>
       <r>   -6.5993    1.0000 </r>
       <r>   -6.5455    1.0000 </r>
       <r>   -6.3253    1.0000 </r>
       <r>   -6.2856    1.0000 </r>
       <r>   -6.1637    1.0000 </r>
       <r>   -6.0875    1.0000 </r>
       <r>   -6.0686    1.0000 </r>
       <r>   -5.8806    1.0000 </r>
       <r>   -5.6263    1.0000 </r>
       <r>   -5.5699    1.0000 </r>
       <r>   -5.4884    1.0000 </r>
       <r>   -5.3837    1.0000 </r>
       <r>   -5.3431    1.0000 </r>
       <r>   -5.3114    1.0000 </r>
       <r>   -5.2153    1.0000 </r>
       <r>   -5.1665    1.0000 </r>
       <r>   -5.0766    1.0000 </r>
       <r>   -5.0245    1.0000 </r>
       <r>   -4.8005    1.0000 </r>
       <r>   -4.7001    1.0000 </r>
       <r>   -4.6875    1.0000 </r>
       <r>   -4.6630    1.0000 </r>
       <r>   -4.5391    1.0000 </r>
       <r>   -4.4396    1.0000 </r>
       <r>   -4.3997    1.0000 </r>
       <r>   -4.3345    1.0000 </r>
       <r>   -4.1879    1.0000 </r>
       <r>   -4.1198    1.0000 </r>
       <r>   -4.0690    1.0000 </r>
       <r>   -3.9603    1.0000 </r>
       <r>   -3.8897    1.0000 </r>
       <r>   -3.8346    1.0000 </r>
       <r>   -3.7714    1.0000 </r>
       <r>   -3.7361    1.0000 </r>
       <r>   -3.6965    1.0000 </r>
       <r>   -3.6458    1.0000 </r>
       <r>   -3.6214    1.0000 </r>
       <r>   -3.5087    1.0000 </r>
       <r>   -3.4462    1.0000 </r>
       <r>   -3.4334    1.0000 </r>
       <r>   -3.3517    1.0000 </r>
       <r>   -3.3107    1.0000 </r>
       <r>   -3.2383    1.0000 </r>
       <r>   -3.1825    1.0000 </r>
       <r>   -3.0994    1.0000 </r>
       <r>   -3.0124    1.0000 </r>
       <r>   -2.9478    1.0000 </r>
       <r>   -2.8486    1.0000 </r>
       <r>   -2.7955    1.0000 </r>
       <r>   -2.7201    1.0000 </r>
       <r>   -2.5049    1.0000 </r>
       <r>   -2.4619    1.0000 </r>
       <r>   -2.4066    1.0000 </r>
       <r>   -2.3575    1.0000 </r>
       <r>   -2.3129    1.0000 </r>
       <r>   -2.2350    1.0000 </r>
       <r>   -2.1825    1.0000 </r>
       <r>   -2.1068    1.0000 </r>
       <r>   -2.0029    1.0000 </r>
       <r>   -1.9473    1.0000 </r>
       <r>   -1.9307    1.0000 </r>
       <r>   -1.8685    1.0000 </r>
       <r>   -1.7860    1.0000 </r>
       <r>   -1.5711    1.0000 </r>
       <r>   -1.4552    1.0001 </r>
       <r>   -1.3636    1.0013 </r>
       <r>   -1.2622    1.0091 </r>
       <r>   -1.2424    1.0122 </r>
       <r>   -1.1721    1.0273 </r>
       <r>   -1.0353    0.9961 </r>
       <r>   -0.9465    0.7976 </r>
       <r>   -0.8606    0.4585 </r>
       <r>   -0.8033    0.2327 </r>
       <r>   -0.7481    0.0748 </r>
       <r>   -0.6652   -0.0276 </r>
       <r>   -0.4989   -0.0123 </r>
       <r>   -0.2560   -0.0001 </r>
       <r>    0.6129   -0.0000 </r>
       <r>    1.0101   -0.0000 </r>
       <r>    1.1088   -0.0000 </r>
       <r>    1.7178   -0.0000 </r>
       <r>    1.9352   -0.0000 </r>
       <r>    2.0803   -0.0000 </r>
       <r>    2.4815   -0.0000 </r>
       <r>    3.0049   -0.0000 </r>
       <r>    3.5798   -0.0000 </r>
       <r>    3.9569   -0.0000 </r>
      </set>
      <set comment="kpoint 10">
       <r>   -8.9594    1.0000 </r>
       <r>   -7.9839    1.0000 </r>
       <r>   -7.7422    1.0000 </r>
       <r>   -7.2026    1.0000 </r>
       <r>   -6.9042    1.0000 </r>
       <r>   -6.8142    1.0000 </r>
       <r>   -6.7141    1.0000 </r>
       <r>   -6.6590    1.0000 </r>
       <r>   -6.6168    1.0000 </r>
       <r>   -6.5978    1.0000 </r>
       <r>   -6.5432    1.0000 </r>
       <r>   -6.3248    1.0000 </r>
       <r>   -6.2867    1.0000 </r>
       <r>   -6.1637    1.0000 </r>
       <r>   -6.0886    1.0000 </r>
       <r>   -6.0662    1.0000 </r>
       <r>   -5.8820    1.0000 </r>
       <r>   -5.6278    1.0000 </r>
       <r>   -5.5686    1.0000 </r>
       <r>   -5.4866    1.0000 </r>
       <r>   -5.3855    1.0000 </r>
       <r>   -5.3419    1.0000 </r>
       <r>   -5.3111    1.0000 </r>
       <r>   -5.2168    1.0000 </r>
       <r>   -5.1641    1.0000 </r>
       <r>   -5.0826    1.0000 </r>
       <r>   -5.0150    1.0000 </r>
       <r>   -4.7999    1.0000 </r>
       <r>   -4.7014    1.0000 </r>
       <r>   -4.6914    1.0000 </r>
       <r>   -4.6657    1.0000 </r>
       <r>   -4.5384    1.0000 </r>
       <r>   -4.4437    1.0000 </r>
       <r>   -4.4016    1.0000 </r>
       <r>   -4.3339    1.0000 </r>
       <r>   -4.1861    1.0000 </r>
       <r>   -4.1196    1.0000 </r>
       <r>   -4.0719    1.0000 </r>
       <r>   -3.9485    1.0000 </r>
       <r>   -3.8940    1.0000 </r>
       <r>   -3.8334    1.0000 </r>
       <r>   -3.7737    1.0000 </r>
       <r>   -3.7241    1.0000 </r>
       <r>   -3.6966    1.0000 </r>
       <r>   -3.6528    1.0000 </r>
       <r>   -3.6317    1.0000 </r>
       <r>   -3.5128    1.0000 </r>
       <r>   -3.4455    1.0000 </r>
       <r>   -3.4055    1.0000 </r>
       <r>   -3.3673    1.0000 </r>
       <r>   -3.3171    1.0000 </r>
       <r>   -3.2244    1.0000 </r>
       <r>   -3.2008    1.0000 </r>
       <r>   -3.0822    1.0000 </r>
       <r>   -3.0169    1.0000 </r>
       <r>   -2.9151    1.0000 </r>
       <r>   -2.8845    1.0000 </r>
       <r>   -2.7954    1.0000 </r>
       <r>   -2.7159    1.0000 </r>
       <r>   -2.5259    1.0000 </r>
       <r>   -2.4483    1.0000 </r>
       <r>   -2.4125    1.0000 </r>
       <r>   -2.3607    1.0000 </r>
       <r>   -2.3036    1.0000 </r>
       <r>   -2.2306    1.0000 </r>
       <r>   -2.1737    1.0000 </r>
       <r>   -2.1092    1.0000 </r>
       <r>   -2.0020    1.0000 </r>
       <r>   -1.9768    1.0000 </r>
       <r>   -1.9150    1.0000 </r>
       <r>   -1.8675    1.0000 </r>
       <r>   -1.7828    1.0000 </r>
       <r>   -1.5707    1.0000 </r>
       <r>   -1.4495    1.0002 </r>
       <r>   -1.3752    1.0010 </r>
       <r>   -1.2676    1.0084 </r>
       <r>   -1.2413    1.0124 </r>
       <r>   -1.1602    1.0299 </r>
       <r>   -1.0260    0.9842 </r>
       <r>   -0.9697    0.8682 </r>
       <r>   -0.8779    0.5316 </r>
       <r>   -0.7535    0.0871 </r>
       <r>   -0.7507    0.0805 </r>
       <r>   -0.6803   -0.0192 </r>
       <r>   -0.5033   -0.0131 </r>
       <r>   -0.2551   -0.0001 </r>
       <r>    0.6131   -0.0000 </r>
       <r>    1.0091   -0.0000 </r>
       <r>    1.1108   -0.0000 </r>
       <r>    1.7182   -0.0000 </r>
       <r>    1.9324   -0.0000 </r>
       <r>    2.0824   -0.0000 </r>
       <r>    2.4817   -0.0000 </r>
       <r>    3.0042   -0.0000 </r>
       <r>    3.5801   -0.0000 </r>
       <r>    3.9565   -0.0000 </r>
      </set>
      <set comment="kpoint 11">
       <r>   -8.9597    1.0000 </r>
       <r>   -7.9827    1.0000 </r>
       <r>   -7.7430    1.0000 </r>
       <r>   -7.2032    1.0000 </r>
       <r>   -6.9062    1.0000 </r>
       <r>   -6.8137    1.0000 </r>
       <r>   -6.7189    1.0000 </r>
       <r>   -6.6603    1.0000 </r>
       <r>   -6.6115    1.0000 </r>
       <r>   -6.5938    1.0000 </r>
       <r>   -6.5469    1.0000 </r>
       <r>   -6.3242    1.0000 </r>
       <r>   -6.2816    1.0000 </r>
       <r>   -6.1685    1.0000 </r>
       <r>   -6.0869    1.0000 </r>
       <r>   -6.0648    1.0000 </r>
       <r>   -5.8811    1.0000 </r>
       <r>   -5.6083    1.0000 </r>
       <r>   -5.5768    1.0000 </r>
       <r>   -5.4936    1.0000 </r>
       <r>   -5.3987    1.0000 </r>
       <r>   -5.3446    1.0000 </r>
       <r>   -5.2975    1.0000 </r>
       <r>   -5.2238    1.0000 </r>
       <r>   -5.1722    1.0000 </r>
       <r>   -5.0597    1.0000 </r>
       <r>   -5.0320    1.0000 </r>
       <r>   -4.7962    1.0000 </r>
       <r>   -4.7166    1.0000 </r>
       <r>   -4.6808    1.0000 </r>
       <r>   -4.6675    1.0000 </r>
       <r>   -4.5391    1.0000 </r>
       <r>   -4.4436    1.0000 </r>
       <r>   -4.3964    1.0000 </r>
       <r>   -4.3290    1.0000 </r>
       <r>   -4.1920    1.0000 </r>
       <r>   -4.1142    1.0000 </r>
       <r>   -4.0654    1.0000 </r>
       <r>   -3.9641    1.0000 </r>
       <r>   -3.9059    1.0000 </r>
       <r>   -3.8197    1.0000 </r>
       <r>   -3.7661    1.0000 </r>
       <r>   -3.7430    1.0000 </r>
       <r>   -3.7223    1.0000 </r>
       <r>   -3.6420    1.0000 </r>
       <r>   -3.6124    1.0000 </r>
       <r>   -3.5012    1.0000 </r>
       <r>   -3.4477    1.0000 </r>
       <r>   -3.4035    1.0000 </r>
       <r>   -3.3644    1.0000 </r>
       <r>   -3.3123    1.0000 </r>
       <r>   -3.2316    1.0000 </r>
       <r>   -3.1869    1.0000 </r>
       <r>   -3.1024    1.0000 </r>
       <r>   -2.9717    1.0000 </r>
       <r>   -2.9550    1.0000 </r>
       <r>   -2.8595    1.0000 </r>
       <r>   -2.8008    1.0000 </r>
       <r>   -2.7273    1.0000 </r>
       <r>   -2.5313    1.0000 </r>
       <r>   -2.4613    1.0000 </r>
       <r>   -2.3979    1.0000 </r>
       <r>   -2.3543    1.0000 </r>
       <r>   -2.3027    1.0000 </r>
       <r>   -2.2383    1.0000 </r>
       <r>   -2.1602    1.0000 </r>
       <r>   -2.1179    1.0000 </r>
       <r>   -1.9962    1.0000 </r>
       <r>   -1.9557    1.0000 </r>
       <r>   -1.9225    1.0000 </r>
       <r>   -1.8611    1.0000 </r>
       <r>   -1.8148    1.0000 </r>
       <r>   -1.5699    1.0000 </r>
       <r>   -1.4699    1.0001 </r>
       <r>   -1.3555    1.0016 </r>
       <r>   -1.3116    1.0039 </r>
       <r>   -1.2080    1.0191 </r>
       <r>   -1.1427    1.0331 </r>
       <r>   -1.0161    0.9694 </r>
       <r>   -0.9656    0.8567 </r>
       <r>   -0.9042    0.6408 </r>
       <r>   -0.8046    0.2374 </r>
       <r>   -0.7205    0.0240 </r>
       <r>   -0.6216   -0.0354 </r>
       <r>   -0.5467   -0.0222 </r>
       <r>   -0.2500   -0.0001 </r>
       <r>    0.6202   -0.0000 </r>
       <r>    1.0174   -0.0000 </r>
       <r>    1.1029   -0.0000 </r>
       <r>    1.7123   -0.0000 </r>
       <r>    1.9300   -0.0000 </r>
       <r>    2.0984   -0.0000 </r>
       <r>    2.4714   -0.0000 </r>
       <r>    3.0030   -0.0000 </r>
       <r>    3.5736   -0.0000 </r>
       <r>    3.9622   -0.0000 </r>
      </set>
      <set comment="kpoint 12">
       <r>   -8.6121    1.0000 </r>
       <r>   -8.2709    1.0000 </r>
       <r>   -7.4909    1.0000 </r>
       <r>   -7.3011    1.0000 </r>
       <r>   -6.8205    1.0000 </r>
       <r>   -6.7275    1.0000 </r>
       <r>   -6.6085    1.0000 </r>
       <r>   -6.5867    1.0000 </r>
       <r>   -6.5096    1.0000 </r>
       <r>   -6.4270    1.0000 </r>
       <r>   -6.4006    1.0000 </r>
       <r>   -6.2689    1.0000 </r>
       <r>   -6.2483    1.0000 </r>
       <r>   -6.0978    1.0000 </r>
       <r>   -5.9425    1.0000 </r>
       <r>   -5.9077    1.0000 </r>
       <r>   -5.7611    1.0000 </r>
       <r>   -5.7255    1.0000 </r>
       <r>   -5.6138    1.0000 </r>
       <r>   -5.5097    1.0000 </r>
       <r>   -5.3850    1.0000 </r>
       <r>   -5.3202    1.0000 </r>
       <r>   -5.2521    1.0000 </r>
       <r>   -5.1702    1.0000 </r>
       <r>   -5.1358    1.0000 </r>
       <r>   -5.0977    1.0000 </r>
       <r>   -5.0534    1.0000 </r>
       <r>   -4.9613    1.0000 </r>
       <r>   -4.7299    1.0000 </r>
       <r>   -4.6918    1.0000 </r>
       <r>   -4.6572    1.0000 </r>
       <r>   -4.5928    1.0000 </r>
       <r>   -4.5252    1.0000 </r>
       <r>   -4.4529    1.0000 </r>
       <r>   -4.3168    1.0000 </r>
       <r>   -4.2022    1.0000 </r>
       <r>   -4.1068    1.0000 </r>
       <r>   -4.0070    1.0000 </r>
       <r>   -3.9789    1.0000 </r>
       <r>   -3.9150    1.0000 </r>
       <r>   -3.8843    1.0000 </r>
       <r>   -3.8099    1.0000 </r>
       <r>   -3.7916    1.0000 </r>
       <r>   -3.7395    1.0000 </r>
       <r>   -3.7046    1.0000 </r>
       <r>   -3.6810    1.0000 </r>
       <r>   -3.6242    1.0000 </r>
       <r>   -3.6117    1.0000 </r>
       <r>   -3.5732    1.0000 </r>
       <r>   -3.4917    1.0000 </r>
       <r>   -3.4331    1.0000 </r>
       <r>   -3.3604    1.0000 </r>
       <r>   -3.2991    1.0000 </r>
       <r>   -3.1220    1.0000 </r>
       <r>   -2.9952    1.0000 </r>
       <r>   -2.9329    1.0000 </r>
       <r>   -2.9169    1.0000 </r>
       <r>   -2.8252    1.0000 </r>
       <r>   -2.7239    1.0000 </r>
       <r>   -2.6197    1.0000 </r>
       <r>   -2.4859    1.0000 </r>
       <r>   -2.4599    1.0000 </r>
       <r>   -2.4180    1.0000 </r>
       <r>   -2.3083    1.0000 </r>
       <r>   -2.2542    1.0000 </r>
       <r>   -2.2242    1.0000 </r>
       <r>   -2.1585    1.0000 </r>
       <r>   -2.1127    1.0000 </r>
       <r>   -2.0733    1.0000 </r>
       <r>   -2.0066    1.0000 </r>
       <r>   -1.9069    1.0000 </r>
       <r>   -1.8567    1.0000 </r>
       <r>   -1.8217    1.0000 </r>
       <r>   -1.6551    1.0000 </r>
       <r>   -1.4082    1.0005 </r>
       <r>   -1.2752    1.0074 </r>
       <r>   -1.2514    1.0107 </r>
       <r>   -1.1710    1.0275 </r>
       <r>   -1.0070    0.9538 </r>
       <r>   -0.9463    0.7969 </r>
       <r>   -0.8443    0.3907 </r>
       <r>   -0.7402    0.0583 </r>
       <r>   -0.7103    0.0098 </r>
       <r>   -0.6316   -0.0353 </r>
       <r>   -0.5172   -0.0158 </r>
       <r>   -0.4439   -0.0051 </r>
       <r>    0.6387   -0.0000 </r>
       <r>    1.1395   -0.0000 </r>
       <r>    1.3102   -0.0000 </r>
       <r>    1.6381   -0.0000 </r>
       <r>    1.7304   -0.0000 </r>
       <r>    2.1142   -0.0000 </r>
       <r>    2.5149   -0.0000 </r>
       <r>    3.5571   -0.0000 </r>
       <r>    3.6286   -0.0000 </r>
       <r>    3.9681   -0.0000 </r>
      </set>
      <set comment="kpoint 13">
       <r>   -8.6120    1.0000 </r>
       <r>   -8.2709    1.0000 </r>
       <r>   -7.4909    1.0000 </r>
       <r>   -7.3011    1.0000 </r>
       <r>   -6.8211    1.0000 </r>
       <r>   -6.7268    1.0000 </r>
       <r>   -6.6084    1.0000 </r>
       <r>   -6.5861    1.0000 </r>
       <r>   -6.5095    1.0000 </r>
       <r>   -6.4282    1.0000 </r>
       <r>   -6.4001    1.0000 </r>
       <r>   -6.2692    1.0000 </r>
       <r>   -6.2487    1.0000 </r>
       <r>   -6.0972    1.0000 </r>
       <r>   -5.9435    1.0000 </r>
       <r>   -5.9063    1.0000 </r>
       <r>   -5.7622    1.0000 </r>
       <r>   -5.7252    1.0000 </r>
       <r>   -5.6131    1.0000 </r>
       <r>   -5.5103    1.0000 </r>
       <r>   -5.3854    1.0000 </r>
       <r>   -5.3195    1.0000 </r>
       <r>   -5.2514    1.0000 </r>
       <r>   -5.1718    1.0000 </r>
       <r>   -5.1345    1.0000 </r>
       <r>   -5.0944    1.0000 </r>
       <r>   -5.0597    1.0000 </r>
       <r>   -4.9607    1.0000 </r>
       <r>   -4.7288    1.0000 </r>
       <r>   -4.6924    1.0000 </r>
       <r>   -4.6508    1.0000 </r>
       <r>   -4.6013    1.0000 </r>
       <r>   -4.5208    1.0000 </r>
       <r>   -4.4516    1.0000 </r>
       <r>   -4.3154    1.0000 </r>
       <r>   -4.2017    1.0000 </r>
       <r>   -4.1072    1.0000 </r>
       <r>   -4.0068    1.0000 </r>
       <r>   -3.9659    1.0000 </r>
       <r>   -3.9333    1.0000 </r>
       <r>   -3.8818    1.0000 </r>
       <r>   -3.8149    1.0000 </r>
[...]
       <r>   -4.4595    1.0000 </r>
       <r>   -4.3566    1.0000 </r>
       <r>   -4.3147    1.0000 </r>
       <r>   -4.1990    1.0000 </r>
       <r>   -4.1239    1.0000 </r>
       <r>   -4.1104    1.0000 </r>
       <r>   -4.0448    1.0000 </r>
       <r>   -3.9798    1.0000 </r>
       <r>   -3.8504    1.0000 </r>
       <r>   -3.8095    1.0000 </r>
       <r>   -3.7889    1.0000 </r>
       <r>   -3.7332    1.0000 </r>
       <r>   -3.6933    1.0000 </r>
       <r>   -3.6717    1.0000 </r>
       <r>   -3.6426    1.0000 </r>
       <r>   -3.5868    1.0000 </r>
       <r>   -3.4900    1.0000 </r>
       <r>   -3.3955    1.0000 </r>
       <r>   -3.3529    1.0000 </r>
       <r>   -3.2638    1.0000 </r>
       <r>   -3.0957    1.0000 </r>
       <r>   -2.9848    1.0000 </r>
       <r>   -2.9294    1.0000 </r>
       <r>   -2.8846    1.0000 </r>
       <r>   -2.8256    1.0000 </r>
       <r>   -2.7151    1.0000 </r>
       <r>   -2.6471    1.0000 </r>
       <r>   -2.4772    1.0000 </r>
       <r>   -2.4690    1.0000 </r>
       <r>   -2.3696    1.0000 </r>
       <r>   -2.3367    1.0000 </r>
       <r>   -2.2023    1.0000 </r>
       <r>   -2.1693    1.0000 </r>
       <r>   -2.1138    1.0000 </r>
       <r>   -2.0347    1.0000 </r>
       <r>   -1.9987    1.0000 </r>
       <r>   -1.9114    1.0000 </r>
       <r>   -1.8453    1.0000 </r>
       <r>   -1.7855    1.0000 </r>
       <r>   -1.7809    1.0000 </r>
       <r>   -1.6071    1.0000 </r>
       <r>   -1.4152    1.0004 </r>
       <r>   -1.3897    1.0007 </r>
       <r>   -1.2549    1.0102 </r>
       <r>   -1.1603    1.0298 </r>
       <r>   -1.0766    1.0280 </r>
       <r>   -1.0149    0.9674 </r>
       <r>   -0.9503    0.8098 </r>
       <r>   -0.8191    0.2904 </r>
       <r>   -0.7492    0.0772 </r>
       <r>   -0.6552   -0.0313 </r>
       <r>   -0.4982   -0.0122 </r>
       <r>   -0.4207   -0.0033 </r>
       <r>    0.1588   -0.0000 </r>
       <r>    0.5293   -0.0000 </r>
       <r>    1.4424   -0.0000 </r>
       <r>    1.5309   -0.0000 </r>
       <r>    1.5576   -0.0000 </r>
       <r>    2.2699   -0.0000 </r>
       <r>    3.1833   -0.0000 </r>
       <r>    3.3886   -0.0000 </r>
       <r>    3.9042   -0.0000 </r>
       <r>    3.9742   -0.0000 </r>
      </set>
     </set>
    </set>
   </array>
  </eigenvalues>
  <separator name="orbital magnetization" >
   <v name="MAGDIPOLOUT">      0.00000000      0.00000000      0.00000000</v>
  </separator>
  <dos>
   <i name="efermi">     -0.87042921 </i>
   <total>
    <array>
     <dimension dim="1">gridpoints</dimension>
     <dimension dim="2">spin</dimension>
     <field>energy</field>
     <field>total</field>
     <field>integrated</field>
     <set>
      <set comment="spin 1">
       <r>   -12.2524     0.0000     0.0000 </r>
       <r>   -12.1900     0.0000     0.0000 </r>
       <r>   -12.1275     0.0000     0.0000 </r>
       <r>   -12.0651     0.0000     0.0000 </r>
       <r>   -12.0026     0.0000     0.0000 </r>
       <r>   -11.9402     0.0000     0.0000 </r>
       <r>   -11.8778    -0.0000    -0.0000 </r>
       <r>   -11.8153    -0.0000    -0.0000 </r>
       <r>   -11.7529    -0.0000    -0.0000 </r>
       <r>   -11.6904    -0.0000    -0.0000 </r>
       <r>   -11.6280    -0.0000    -0.0000 </r>
       <r>   -11.5655    -0.0000    -0.0000 </r>
       <r>   -11.5031    -0.0000    -0.0000 </r>
       <r>   -11.4406    -0.0000    -0.0000 </r>
       <r>   -11.3782    -0.0000    -0.0000 </r>
       <r>   -11.3158    -0.0000    -0.0000 </r>
       <r>   -11.2533    -0.0000    -0.0000 </r>
       <r>   -11.1909    -0.0000    -0.0000 </r>
       <r>   -11.1284    -0.0000    -0.0000 </r>
       <r>   -11.0660    -0.0000    -0.0000 </r>
       <r>   -11.0035    -0.0000    -0.0000 </r>
       <r>   -10.9411    -0.0000    -0.0000 </r>
       <r>   -10.8786    -0.0000    -0.0000 </r>
       <r>   -10.8162    -0.0002    -0.0000 </r>
       <r>   -10.7538    -0.0011    -0.0001 </r>
       <r>   -10.6913    -0.0038    -0.0003 </r>
       <r>   -10.6289    -0.0104    -0.0010 </r>
       <r>   -10.5664    -0.0212    -0.0023 </r>
       <r>   -10.5040    -0.0284    -0.0041 </r>
       <r>   -10.4415    -0.0093    -0.0046 </r>
       <r>   -10.3791     0.0665    -0.0005 </r>
       <r>   -10.3166     0.2127     0.0128 </r>
       <r>   -10.2542     0.4066     0.0382 </r>
       <r>   -10.1918     0.6041     0.0759 </r>
       <r>   -10.1293     0.7710     0.1240 </r>
       <r>   -10.0669     0.8882     0.1795 </r>
       <r>   -10.0044     0.9374     0.2380 </r>
       <r>    -9.9420     0.9085     0.2948 </r>
       <r>    -9.8795     0.8258     0.3463 </r>
       <r>    -9.8171     0.7550     0.3935 </r>
       <r>    -9.7546     0.7707     0.4416 </r>
       <r>    -9.6922     0.8911     0.4973 </r>
       <r>    -9.6297     1.0382     0.5621 </r>
       <r>    -9.5673     1.0968     0.6306 </r>
       <r>    -9.5049     1.0299     0.6949 </r>
       <r>    -9.4424     0.9041     0.7513 </r>
       <r>    -9.3800     0.8007     0.8013 </r>
       <r>    -9.3175     0.7476     0.8480 </r>
       <r>    -9.2551     0.7523     0.8950 </r>
       <r>    -9.1926     0.8472     0.9479 </r>
       <r>    -9.1302     1.0500     1.0135 </r>
       <r>    -9.0677     1.3037     1.0949 </r>
       <r>    -9.0053     1.5097     1.1892 </r>
       <r>    -8.9429     1.6270     1.2907 </r>
       <r>    -8.8804     1.6979     1.3968 </r>
       <r>    -8.8180     1.7668     1.5071 </r>
       <r>    -8.7555     1.8150     1.6204 </r>
       <r>    -8.6931     1.8078     1.7333 </r>
       <r>    -8.6306     1.7814     1.8446 </r>
       <r>    -8.5682     1.8395     1.9594 </r>
       <r>    -8.5057     2.0499     2.0874 </r>
       <r>    -8.4433     2.3570     2.2346 </r>
       <r>    -8.3809     2.6045     2.3972 </r>
       <r>    -8.3184     2.6594     2.5633 </r>
       <r>    -8.2560     2.5277     2.7212 </r>
       <r>    -8.1935     2.3299     2.8666 </r>
       <r>    -8.1311     2.1605     3.0016 </r>
       <r>    -8.0686     2.0344     3.1286 </r>
       <r>    -8.0062     2.0273     3.2552 </r>
       <r>    -7.9437     2.3697     3.4032 </r>
       <r>    -7.8813     3.2326     3.6050 </r>
       <r>    -7.8189     4.4329     3.8818 </r>
       <r>    -7.7564     5.5571     4.2288 </r>
       <r>    -7.6940     6.4299     4.6304 </r>
       <r>    -7.6315     7.2529     5.0833 </r>
       <r>    -7.5691     8.2326     5.5973 </r>
       <r>    -7.5066     9.3357     6.1803 </r>
       <r>    -7.4442    10.4961     6.8357 </r>
       <r>    -7.3817    11.7587     7.5700 </r>
       <r>    -7.3193    13.0370     8.3841 </r>
       <r>    -7.2568    13.9461     9.2550 </r>
       <r>    -7.1944    14.1104    10.1361 </r>
       <r>    -7.1320    13.6103    10.9860 </r>
       <r>    -7.0695    13.0061    11.7981 </r>
       <r>    -7.0071    12.9126    12.6045 </r>
       <r>    -6.9446    13.5886    13.4530 </r>
       <r>    -6.8822    14.8948    14.3831 </r>
       <r>    -6.8197    16.5578    15.4170 </r>
       <r>    -6.7573    18.4166    16.5671 </r>
       <r>    -6.6948    20.3839    17.8399 </r>
       <r>    -6.6324    22.2173    19.2273 </r>
       <r>    -6.5700    23.5024    20.6949 </r>
       <r>    -6.5075    23.9757    22.1920 </r>
       <r>    -6.4451    23.7870    23.6774 </r>
       <r>    -6.3826    23.3407    25.1349 </r>
       <r>    -6.3202    22.8750    26.5633 </r>
       <r>    -6.2577    22.2251    27.9512 </r>
       <r>    -6.1953    21.0256    29.2641 </r>
       <r>    -6.1328    19.1308    30.4587 </r>
       <r>    -6.0704    16.7912    31.5073 </r>
       <r>    -6.0080    14.4786    32.4114 </r>
       <r>    -5.9455    12.6710    33.2026 </r>
       <r>    -5.8831    11.7920    33.9390 </r>
       <r>    -5.8206    12.1701    34.6989 </r>
       <r>    -5.7582    13.8671    35.5648 </r>
       <r>    -5.6957    16.4888    36.5945 </r>
       <r>    -5.6333    19.2152    37.7944 </r>
       <r>    -5.5708    21.1321    39.1140 </r>
       <r>    -5.5084    21.7102    40.4696 </r>
       <r>    -5.4460    21.1524    41.7905 </r>
       <r>    -5.3835    20.3000    43.0581 </r>
       <r>    -5.3211    20.0477    44.3100 </r>
       <r>    -5.2586    20.6947    45.6023 </r>
       <r>    -5.1962    21.7696    46.9617 </r>
       <r>    -5.1337    22.4176    48.3615 </r>
       <r>    -5.0713    22.0226    49.7367 </r>
       <r>    -5.0088    20.6761    51.0278 </r>
       <r>    -4.9464    19.1919    52.2263 </r>
       <r>    -4.8839    18.5937    53.3874 </r>
       <r>    -4.8215    19.4295    54.6006 </r>
       <r>    -4.7591    21.4413    55.9395 </r>
       <r>    -4.6966    23.7785    57.4244 </r>
       <r>    -4.6342    25.5438    59.0194 </r>
       <r>    -4.5717    26.3308    60.6637 </r>
       <r>    -4.5093    26.4082    62.3127 </r>
       <r>    -4.4468    26.4174    63.9623 </r>
       <r>    -4.3844    26.8926    65.6416 </r>
       <r>    -4.3219    28.0081    67.3906 </r>
       <r>    -4.2595    29.5564    69.2362 </r>
       <r>    -4.1971    31.0073    71.1725 </r>
       <r>    -4.1346    31.7733    73.1566 </r>
       <r>    -4.0722    31.7100    75.1367 </r>
       <r>    -4.0097    31.3673    77.0954 </r>
       <r>    -3.9473    31.5810    79.0675 </r>
       <r>    -3.8848    32.7236    81.1109 </r>
       <r>    -3.8224    34.2848    83.2518 </r>
       <r>    -3.7599    35.1366    85.4459 </r>
       <r>    -3.6975    34.3570    87.5913 </r>
       <r>    -3.6351    32.0067    89.5899 </r>
       <r>    -3.5726    29.0929    91.4066 </r>
       <r>    -3.5102    26.6459    93.0705 </r>
       <r>    -3.4477    24.8201    94.6204 </r>
       <r>    -3.3853    22.9766    96.0552 </r>
       <r>    -3.3228    20.6336    97.3436 </r>
       <r>    -3.2604    18.2273    98.4818 </r>
       <r>    -3.1979    16.8941    99.5368 </r>
       <r>    -3.1355    17.5580   100.6332 </r>
       <r>    -3.0731    20.2066   101.8950 </r>
       <r>    -3.0106    23.8573   103.3848 </r>
       <r>    -2.9482    27.0650   105.0748 </r>
       <r>    -2.8857    28.6258   106.8624 </r>
       <r>    -2.8233    28.1844   108.6223 </r>
       <r>    -2.7608    26.3888   110.2702 </r>
       <r>    -2.6984    24.4028   111.7940 </r>
       <r>    -2.6359    23.0861   113.2356 </r>
       <r>    -2.5735    22.4869   114.6398 </r>
       <r>    -2.5110    22.0817   116.0187 </r>
       <r>    -2.4486    21.5089   117.3618 </r>
       <r>    -2.3862    20.9827   118.6720 </r>
       <r>    -2.3237    20.9617   119.9810 </r>
       <r>    -2.2613    21.6246   121.3313 </r>
       <r>    -2.1988    22.8304   122.7570 </r>
       <r>    -2.1364    24.4039   124.2809 </r>
       <r>    -2.0739    26.2132   125.9177 </r>
       <r>    -2.0115    27.9908   127.6656 </r>
       <r>    -1.9490    29.2526   129.4923 </r>
       <r>    -1.8866    29.5331   131.3365 </r>
       <r>    -1.8242    28.7669   133.1328 </r>
       <r>    -1.7617    27.4059   134.8442 </r>
       <r>    -1.6993    26.0333   136.4698 </r>
       <r>    -1.6368    24.8401   138.0210 </r>
       <r>    -1.5744    23.6622   139.4985 </r>
       <r>    -1.5119    22.5898   140.9091 </r>
       <r>    -1.4495    22.2790   142.3004 </r>
       <r>    -1.3870    23.4381   143.7639 </r>
       <r>    -1.3246    26.0877   145.3930 </r>
       <r>    -1.2622    29.4201   147.2301 </r>
       <r>    -1.1997    32.3180   149.2482 </r>
       <r>    -1.1373    34.0054   151.3717 </r>
       <r>    -1.0748    34.3311   153.5155 </r>
       <r>    -1.0124    33.5746   155.6120 </r>
       <r>    -0.9499    32.1093   157.6171 </r>
       <r>    -0.8875    30.2494   159.5060 </r>
       <r>    -0.8250    28.1923   161.2664 </r>
       <r>    -0.7626    25.9390   162.8862 </r>
       <r>    -0.7002    23.3932   164.3470 </r>
       <r>    -0.6377    20.6427   165.6360 </r>
       <r>    -0.5753    17.9990   166.7600 </r>
       <r>    -0.5128    15.6881   167.7396 </r>
       <r>    -0.4504    13.6553   168.5923 </r>
       <r>    -0.3879    11.7375   169.3252 </r>
       <r>    -0.3255     9.8925   169.9430 </r>
       <r>    -0.2630     8.2289   170.4568 </r>
       <r>    -0.2006     6.9628   170.8916 </r>
       <r>    -0.1381     6.3428   171.2877 </r>
       <r>    -0.0757     6.3821   171.6862 </r>
       <r>    -0.0133     6.6213   172.0997 </r>
       <r>     0.0492     6.4137   172.5002 </r>
       <r>     0.1116     5.5846   172.8489 </r>
       <r>     0.1741     4.6445   173.1389 </r>
       <r>     0.2365     4.2233   173.4027 </r>
       <r>     0.2990     4.3969   173.6772 </r>
       <r>     0.3614     4.6865   173.9699 </r>
       <r>     0.4239     4.6516   174.2603 </r>
       <r>     0.4863     4.3309   174.5308 </r>
       <r>     0.5487     4.1040   174.7871 </r>
       <r>     0.6112     4.2774   175.0542 </r>
       <r>     0.6736     4.8678   175.3581 </r>
       <r>     0.7361     5.6518   175.7111 </r>
       <r>     0.7985     6.2934   176.1040 </r>
       <r>     0.8610     6.4984   176.5098 </r>
       <r>     0.9234     6.2058   176.8974 </r>
       <r>     0.9859     5.6450   177.2499 </r>
       <r>     1.0483     5.1194   177.5695 </r>
       <r>     1.1107     4.7348   177.8652 </r>
       <r>     1.1732     4.3993   178.1399 </r>
       <r>     1.2356     4.0575   178.3933 </r>
       <r>     1.2981     3.8342   178.6327 </r>
       <r>     1.3605     3.9127   178.8770 </r>
       <r>     1.4230     4.3154   179.1465 </r>
       <r>     1.4854     4.8682   179.4505 </r>
       <r>     1.5479     5.3925   179.7872 </r>
       <r>     1.6103     5.8455   180.1523 </r>
       <r>     1.6727     6.1900   180.5388 </r>
       <r>     1.7352     6.2281   180.9277 </r>
       <r>     1.7976     5.7546   181.2870 </r>
       <r>     1.8601     4.8961   181.5928 </r>
       <r>     1.9225     4.1632   181.8527 </r>
       <r>     1.9850     4.0748   182.1072 </r>
       <r>     2.0474     4.7104   182.4013 </r>
       <r>     2.1099     5.6048   182.7513 </r>
       <r>     2.1723     6.1033   183.1324 </r>
       <r>     2.2348     5.9058   183.5012 </r>
       <r>     2.2972     5.3008   183.8322 </r>
       <r>     2.3596     4.8333   184.1341 </r>
       <r>     2.4221     4.7137   184.4284 </r>
       <r>     2.4845     4.6192   184.7168 </r>
       <r>     2.5470     4.1599   184.9766 </r>
       <r>     2.6094     3.4794   185.1939 </r>
       <r>     2.6719     3.2294   185.3955 </r>
       <r>     2.7343     3.9069   185.6395 </r>
       <r>     2.7968     5.2850   185.9695 </r>
       <r>     2.8592     6.5141   186.3763 </r>
       <r>     2.9216     6.7777   186.7995 </r>
       <r>     2.9841     5.9121   187.1687 </r>
       <r>     3.0465     4.4817   187.4486 </r>
       <r>     3.1090     3.3026   187.6548 </r>
       <r>     3.1714     2.8778   187.8345 </r>
       <r>     3.2339     3.1725   188.0326 </r>
       <r>     3.2963     3.7680   188.2679 </r>
       <r>     3.3588     4.2063   188.5306 </r>
       <r>     3.4212     4.2838   188.7981 </r>
       <r>     3.4836     4.0672   189.0520 </r>
       <r>     3.5461     3.6632   189.2808 </r>
       <r>     3.6085     3.1223   189.4757 </r>
       <r>     3.6710     2.6456   189.6409 </r>
       <r>     3.7334     2.6687   189.8076 </r>
       <r>     3.7959     3.4582   190.0235 </r>
       <r>     3.8583     4.6315   190.3128 </r>
       <r>     3.9208     5.3156   190.6447 </r>
       <r>     3.9832     4.9114   190.9514 </r>
       <r>     4.0456     3.6371   191.1785 </r>
       <r>     4.1081     2.2699   191.3202 </r>
       <r>     4.1705     1.4486   191.4107 </r>
       <r>     4.2330     1.2875   191.4911 </r>
       <r>     4.2954     1.5133   191.5856 </r>
       <r>     4.3579     1.7718   191.6962 </r>
       <r>     4.4203     1.8086   191.8092 </r>
       <r>     4.4828     1.5357   191.9051 </r>
       <r>     4.5452     1.0417   191.9701 </r>
       <r>     4.6077     0.5218   192.0027 </r>
       <r>     4.6701     0.1463   192.0118 </r>
       <r>     4.7325    -0.0332   192.0098 </r>
       <r>     4.7950    -0.0710   192.0053 </r>
       <r>     4.8574    -0.0501   192.0022 </r>
       <r>     4.9199    -0.0237   192.0007 </r>
       <r>     4.9823    -0.0084   192.0002 </r>
       <r>     5.0448    -0.0024   192.0000 </r>
       <r>     5.1072    -0.0005   192.0000 </r>
       <r>     5.1697    -0.0001   192.0000 </r>
       <r>     5.2321    -0.0000   192.0000 </r>
       <r>     5.2945    -0.0000   192.0000 </r>
       <r>     5.3570    -0.0000   192.0000 </r>
       <r>     5.4194    -0.0000   192.0000 </r>
       <r>     5.4819    -0.0000   192.0000 </r>
       <r>     5.5443    -0.0000   192.0000 </r>
       <r>     5.6068    -0.0000   192.0000 </r>
       <r>     5.6692    -0.0000   192.0000 </r>
       <r>     5.7317    -0.0000   192.0000 </r>
       <r>     5.7941     0.0000   192.0000 </r>
       <r>     5.8565     0.0000   192.0000 </r>
       <r>     5.9190     0.0000   192.0000 </r>
       <r>     5.9814     0.0000   192.0000 </r>
       <r>     6.0439     0.0000   192.0000 </r>
       <r>     6.1063     0.0000   192.0000 </r>
       <r>     6.1688     0.0000   192.0000 </r>
       <r>     6.2312     0.0000   192.0000 </r>
       <r>     6.2937     0.0000   192.0000 </r>
       <r>     6.3561     0.0000   192.0000 </r>
       <r>     6.4185     0.0000   192.0000 </r>
       <r>     6.4810     0.0000   192.0000 </r>
      </set>
     </set>
    </array>
   </total>
  </dos>
 </calculation>
 <structure name="finalpos" >
  <crystal>
   <varray name="basis" >
    <v>       5.55785930       0.00000000       0.00000000 </v>
    <v>       2.77892965       4.81324734       0.00000000 </v>
    <v>       0.00000000       0.00000000      30.80695967 </v>
   </varray>
   <i name="volume">    824.12780743 </i>
   <varray name="rec_basis" >
    <v>       0.17992539      -0.10387997       0.00000000 </v>
    <v>       0.00000000       0.20775994       0.00000000 </v>
    <v>       0.00000000       0.00000000       0.03246020 </v>
   </varray>
  </crystal>
  <varray name="positions" >
   <v>       0.00000000       0.00000000       0.38952237 </v>
   <v>       0.50000000       0.00000000       0.38952237 </v>
   <v>       0.00000000       0.50000000       0.38952237 </v>
   <v>       0.50000000       0.50000000       0.38952237 </v>
   <v>       0.16666667       0.16666667       0.46468540 </v>
   <v>       0.66666667       0.16666667       0.46468540 </v>
   <v>       0.16666667       0.66666667       0.46468540 </v>
   <v>       0.66666667       0.66666667       0.46468540 </v>
   <v>       0.33333333       0.33333333       0.53920296 </v>
   <v>       0.83333333       0.83333333       0.53920296 </v>
   <v>       0.33333333       0.83333333       0.53920296 </v>
   <v>       0.00000000       0.00000000       0.61486043 </v>
   <v>       0.50000000       0.00000000       0.61486043 </v>
   <v>       0.00000000       0.50000000       0.61486043 </v>
   <v>       0.50000000       0.50000000       0.61486043 </v>
   <v>       0.83333333       0.33333333       0.53920296 </v>
  </varray>
  <varray name="selective"  type="logical" >
   <v type="logical" >  F  F  F </v>
   <v type="logical" >  F  F  F </v>
   <v type="logical" >  F  F  F </v>
   <v type="logical" >  F  F  F </v>
   <v type="logical" >  T  T  T </v>
   <v type="logical" >  T  T  T </v>
   <v type="logical" >  T  T  T </v>
   <v type="logical" >  T  T  T </v>
   <v type="logical" >  T  T  T </v>
   <v type="logical" >  T  T  T </v>
   <v type="logical" >  T  T  T </v>
   <v type="logical" >  T  T  T </v>
   <v type="logical" >  T  T  T </v>
   <v type="logical" >  T  T  T </v>
   <v type="logical" >  T  T  T </v>
   <v type="logical" >  T  T  T </v>
  </varray>
  <nose>
   <v>      -3.00000000       0.00000000       0.00010000       0.00010000 </v>
  </nose>
 </structure>
</modeling>
