  17  17   0   0
  0.4847811E+02  0.5557859E-09  0.5557859E-09  0.3080696E-08  0.5000000E-15
  1.000000000000000E-004
  CAR 
 unknown system                          
      6.50018447    -12.03281640  301     -0.65676392      1.00000000
    -12.033  0.0000E+00  0.0000E+00
    -11.971  0.0000E+00  0.0000E+00
    -11.909  0.0000E+00  0.0000E+00
    -11.847  0.0000E+00  0.0000E+00
    -11.786  0.0000E+00  0.0000E+00
    -11.724  0.0000E+00  0.0000E+00
    -11.662 -0.3490E-28 -0.2156E-29
    -11.600 -0.4667E-26 -0.2905E-27
    -11.539 -0.5161E-24 -0.3217E-25
    -11.477 -0.4707E-22 -0.2940E-23
    -11.415 -0.3541E-20 -0.2217E-21
    -11.353 -0.2196E-18 -0.1379E-19
    -11.291 -0.1123E-16 -0.7074E-18
    -11.230 -0.4731E-15 -0.2993E-16
    -11.168 -0.1592E-13 -0.1013E-14
    -11.106 -0.4536E-12 -0.2903E-13
    -11.044 -0.1063E-10 -0.6858E-12
    -10.983 -0.2048E-09 -0.1334E-10
    -10.921 -0.3242E-08 -0.2136E-09
    -10.859 -0.4211E-07 -0.2815E-08
    -10.797 -0.4481E-06 -0.3050E-07
    -10.736 -0.3899E-05 -0.2714E-06
    -10.674 -0.2767E-04 -0.1981E-05
    -10.612 -0.1595E-03 -0.1183E-04
    -10.550 -0.7422E-03 -0.5768E-04
    -10.488 -0.2762E-02 -0.2283E-03
    -10.427 -0.8085E-02 -0.7278E-03
    -10.365 -0.1798E-01 -0.1839E-02
    -10.303 -0.2786E-01 -0.3560E-02
    -10.241 -0.2004E-01 -0.4797E-02
    -10.180  0.3475E-01 -0.2650E-02
    -10.118  0.1580E+00  0.7110E-02
    -10.056  0.3396E+00  0.2809E-01
     -9.994  0.5401E+00  0.6145E-01
     -9.932  0.7203E+00  0.1060E+00
     -9.871  0.8570E+00  0.1589E+00
     -9.809  0.9327E+00  0.2165E+00
     -9.747  0.9320E+00  0.2741E+00
     -9.685  0.8646E+00  0.3275E+00
     -9.624  0.7821E+00  0.3758E+00
     -9.562  0.7604E+00  0.4228E+00
     -9.500  0.8447E+00  0.4750E+00
     -9.438  0.9932E+00  0.5363E+00
     -9.376  0.1095E+01  0.6040E+00
     -9.315  0.1074E+01  0.6703E+00
     -9.253  0.9596E+00  0.7296E+00
     -9.191  0.8353E+00  0.7812E+00
     -9.129  0.7554E+00  0.8279E+00
     -9.068  0.7442E+00  0.8739E+00
     -9.006  0.8454E+00  0.9261E+00
     -8.944  0.1098E+01  0.9939E+00
     -8.882  0.1453E+01  0.1084E+01
     -8.820  0.1771E+01  0.1193E+01
     -8.759  0.1947E+01  0.1313E+01
     -8.697  0.1998E+01  0.1437E+01
     -8.635  0.1990E+01  0.1560E+01
     -8.573  0.1941E+01  0.1680E+01
     -8.512  0.1855E+01  0.1794E+01
     -8.450  0.1815E+01  0.1906E+01
     -8.388  0.1947E+01  0.2027E+01
     -8.326  0.2267E+01  0.2167E+01
     -8.264  0.2606E+01  0.2328E+01
     -8.203  0.2759E+01  0.2498E+01
     -8.141  0.2703E+01  0.2665E+01
     -8.079  0.2612E+01  0.2826E+01
     -8.017  0.2659E+01  0.2991E+01
     -7.956  0.2849E+01  0.3167E+01
     -7.894  0.3071E+01  0.3357E+01
     -7.832  0.3295E+01  0.3560E+01
     -7.770  0.3719E+01  0.3790E+01
     -7.708  0.4664E+01  0.4078E+01
     -7.647  0.6163E+01  0.4459E+01
     -7.585  0.7687E+01  0.4934E+01
     -7.523  0.8485E+01  0.5458E+01
     -7.461  0.8371E+01  0.5975E+01
     -7.400  0.8034E+01  0.6471E+01
     -7.338  0.8356E+01  0.6987E+01
     -7.276  0.9516E+01  0.7575E+01
     -7.214  0.1101E+02  0.8255E+01
     -7.152  0.1238E+02  0.9020E+01
     -7.091  0.1360E+02  0.9860E+01
     -7.029  0.1462E+02  0.1076E+02
     -6.967  0.1515E+02  0.1170E+02
     -6.905  0.1503E+02  0.1263E+02
     -6.844  0.1464E+02  0.1353E+02
     -6.782  0.1463E+02  0.1444E+02
     -6.720  0.1534E+02  0.1538E+02
     -6.658  0.1661E+02  0.1641E+02
     -6.596  0.1818E+02  0.1753E+02
     -6.535  0.1990E+02  0.1876E+02
     -6.473  0.2163E+02  0.2010E+02
     -6.411  0.2309E+02  0.2152E+02
     -6.349  0.2392E+02  0.2300E+02
     -6.288  0.2398E+02  0.2448E+02
     -6.226  0.2347E+02  0.2593E+02
     -6.164  0.2279E+02  0.2734E+02
     -6.102  0.2219E+02  0.2871E+02
     -6.040  0.2162E+02  0.3005E+02
     -5.979  0.2094E+02  0.3134E+02
     -5.917  0.2034E+02  0.3260E+02
     -5.855  0.2024E+02  0.3385E+02
     -5.793  0.2065E+02  0.3512E+02
     -5.732  0.2097E+02  0.3642E+02
     -5.670  0.2045E+02  0.3768E+02
     -5.608  0.1892E+02  0.3885E+02
     -5.546  0.1698E+02  0.3990E+02
     -5.484  0.1550E+02  0.4086E+02
     -5.423  0.1501E+02  0.4178E+02
     -5.361  0.1541E+02  0.4274E+02
     -5.299  0.1614E+02  0.4373E+02
     -5.237  0.1688E+02  0.4478E+02
     -5.176  0.1786E+02  0.4588E+02
     -5.114  0.1951E+02  0.4708E+02
     -5.052  0.2160E+02  0.4842E+02
     -4.990  0.2317E+02  0.4985E+02
     -4.928  0.2346E+02  0.5130E+02
     -4.867  0.2275E+02  0.5270E+02
     -4.805  0.2193E+02  0.5406E+02
     -4.743  0.2155E+02  0.5539E+02
     -4.681  0.2163E+02  0.5673E+02
     -4.620  0.2218E+02  0.5810E+02
     -4.558  0.2337E+02  0.5954E+02
     -4.496  0.2500E+02  0.6108E+02
     -4.434  0.2626E+02  0.6271E+02
     -4.373  0.2642E+02  0.6434E+02
     -4.311  0.2571E+02  0.6593E+02
     -4.249  0.2524E+02  0.6749E+02
     -4.187  0.2600E+02  0.6909E+02
     -4.125  0.2787E+02  0.7081E+02
     -4.064  0.2985E+02  0.7266E+02
     -4.002  0.3103E+02  0.7458E+02
     -3.940  0.3119E+02  0.7650E+02
     -3.878  0.3076E+02  0.7840E+02
     -3.817  0.3028E+02  0.8027E+02
     -3.755  0.3025E+02  0.8214E+02
     -3.693  0.3097E+02  0.8406E+02
     -3.631  0.3229E+02  0.8605E+02
     -3.569  0.3363E+02  0.8813E+02
     -3.508  0.3413E+02  0.9024E+02
     -3.446  0.3301E+02  0.9228E+02
     -3.384  0.3016E+02  0.9414E+02
     -3.322  0.2629E+02  0.9576E+02
     -3.261  0.2260E+02  0.9716E+02
     -3.199  0.2001E+02  0.9839E+02
     -3.137  0.1877E+02  0.9955E+02
     -3.075  0.1871E+02  0.1007E+03
     -3.013  0.1955E+02  0.1019E+03
     -2.952  0.2096E+02  0.1032E+03
     -2.890  0.2258E+02  0.1046E+03
     -2.828  0.2405E+02  0.1061E+03
     -2.766  0.2515E+02  0.1076E+03
     -2.705  0.2573E+02  0.1092E+03
     -2.643  0.2564E+02  0.1108E+03
     -2.581  0.2479E+02  0.1124E+03
     -2.519  0.2340E+02  0.1138E+03
     -2.457  0.2219E+02  0.1152E+03
     -2.396  0.2187E+02  0.1165E+03
     -2.334  0.2252E+02  0.1179E+03
     -2.272  0.2354E+02  0.1194E+03
     -2.210  0.2425E+02  0.1209E+03
     -2.149  0.2435E+02  0.1224E+03
     -2.087  0.2398E+02  0.1238E+03
     -2.025  0.2354E+02  0.1253E+03
     -1.963  0.2335E+02  0.1267E+03
     -1.901  0.2354E+02  0.1282E+03
     -1.840  0.2414E+02  0.1297E+03
     -1.778  0.2507E+02  0.1312E+03
     -1.716  0.2601E+02  0.1328E+03
     -1.654  0.2638E+02  0.1345E+03
     -1.593  0.2576E+02  0.1361E+03
     -1.531  0.2429E+02  0.1376E+03
     -1.469  0.2257E+02  0.1390E+03
     -1.407  0.2123E+02  0.1403E+03
     -1.345  0.2068E+02  0.1416E+03
     -1.284  0.2101E+02  0.1428E+03
     -1.222  0.2203E+02  0.1442E+03
     -1.160  0.2345E+02  0.1457E+03
     -1.098  0.2508E+02  0.1472E+03
     -1.037  0.2693E+02  0.1489E+03
     -0.975  0.2903E+02  0.1507E+03
     -0.913  0.3118E+02  0.1526E+03
     -0.851  0.3291E+02  0.1546E+03
     -0.789  0.3372E+02  0.1567E+03
     -0.728  0.3332E+02  0.1588E+03
     -0.666  0.3168E+02  0.1607E+03
     -0.604  0.2916E+02  0.1625E+03
     -0.542  0.2641E+02  0.1642E+03
     -0.481  0.2394E+02  0.1656E+03
     -0.419  0.2176E+02  0.1670E+03
     -0.357  0.1944E+02  0.1682E+03
     -0.295  0.1673E+02  0.1692E+03
     -0.233  0.1396E+02  0.1701E+03
     -0.172  0.1158E+02  0.1708E+03
     -0.110  0.9707E+01  0.1714E+03
     -0.048  0.8140E+01  0.1719E+03
      0.014  0.6703E+01  0.1723E+03
      0.075  0.5446E+01  0.1726E+03
      0.137  0.4538E+01  0.1729E+03
      0.199  0.4137E+01  0.1732E+03
      0.261  0.4335E+01  0.1734E+03
      0.323  0.5072E+01  0.1738E+03
      0.384  0.6058E+01  0.1741E+03
      0.446  0.6849E+01  0.1746E+03
      0.508  0.7098E+01  0.1750E+03
      0.570  0.6713E+01  0.1754E+03
      0.631  0.5839E+01  0.1758E+03
      0.693  0.4770E+01  0.1761E+03
      0.755  0.3892E+01  0.1763E+03
      0.817  0.3572E+01  0.1765E+03
      0.879  0.3955E+01  0.1768E+03
      0.940  0.4831E+01  0.1771E+03
      1.002  0.5738E+01  0.1774E+03
      1.064  0.6227E+01  0.1778E+03
      1.126  0.6093E+01  0.1782E+03
      1.187  0.5459E+01  0.1785E+03
      1.249  0.4657E+01  0.1788E+03
      1.311  0.4019E+01  0.1791E+03
      1.373  0.3704E+01  0.1793E+03
      1.434  0.3725E+01  0.1795E+03
      1.496  0.4043E+01  0.1798E+03
      1.558  0.4551E+01  0.1800E+03
      1.620  0.5069E+01  0.1804E+03
      1.682  0.5498E+01  0.1807E+03
      1.743  0.5934E+01  0.1811E+03
      1.805  0.6427E+01  0.1815E+03
      1.867  0.6701E+01  0.1819E+03
      1.929  0.6341E+01  0.1823E+03
      1.990  0.5295E+01  0.1826E+03
      2.052  0.4047E+01  0.1828E+03
      2.114  0.3219E+01  0.1830E+03
      2.176  0.3114E+01  0.1832E+03
      2.238  0.3652E+01  0.1835E+03
      2.299  0.4622E+01  0.1838E+03
      2.361  0.5850E+01  0.1841E+03
      2.423  0.7122E+01  0.1846E+03
      2.485  0.8060E+01  0.1851E+03
      2.546  0.8231E+01  0.1856E+03
      2.608  0.7438E+01  0.1860E+03
      2.670  0.5898E+01  0.1864E+03
      2.732  0.4134E+01  0.1866E+03
      2.794  0.2751E+01  0.1868E+03
      2.855  0.2215E+01  0.1869E+03
      2.917  0.2648E+01  0.1871E+03
      2.979  0.3715E+01  0.1873E+03
      3.041  0.4786E+01  0.1876E+03
      3.102  0.5342E+01  0.1880E+03
      3.164  0.5266E+01  0.1883E+03
      3.226  0.4775E+01  0.1886E+03
      3.288  0.4139E+01  0.1888E+03
      3.350  0.3545E+01  0.1891E+03
      3.411  0.3144E+01  0.1893E+03
      3.473  0.3034E+01  0.1894E+03
      3.535  0.3151E+01  0.1896E+03
      3.597  0.3299E+01  0.1898E+03
      3.658  0.3347E+01  0.1900E+03
      3.720  0.3337E+01  0.1903E+03
      3.782  0.3366E+01  0.1905E+03
      3.844  0.3425E+01  0.1907E+03
      3.906  0.3395E+01  0.1909E+03
      3.967  0.3205E+01  0.1911E+03
      4.029  0.2942E+01  0.1913E+03
      4.091  0.2731E+01  0.1914E+03
      4.153  0.2555E+01  0.1916E+03
      4.214  0.2267E+01  0.1917E+03
      4.276  0.1778E+01  0.1918E+03
      4.338  0.1181E+01  0.1919E+03
      4.400  0.6654E+00  0.1920E+03
      4.462  0.3519E+00  0.1920E+03
      4.523  0.2137E+00  0.1920E+03
      4.585  0.1488E+00  0.1920E+03
      4.647  0.8876E-01  0.1920E+03
      4.709  0.3047E-01  0.1920E+03
      4.770 -0.5974E-02  0.1920E+03
      4.832 -0.1629E-01  0.1920E+03
      4.894 -0.1234E-01  0.1920E+03
      4.956 -0.6083E-02  0.1920E+03
      5.018 -0.2214E-02  0.1920E+03
      5.079 -0.6234E-03  0.1920E+03
      5.141 -0.1388E-03  0.1920E+03
      5.203 -0.2476E-04  0.1920E+03
      5.265 -0.3567E-05  0.1920E+03
      5.326 -0.4171E-06  0.1920E+03
      5.388 -0.3975E-07  0.1920E+03
      5.450 -0.3095E-08  0.1920E+03
      5.512 -0.1973E-09  0.1920E+03
      5.574 -0.1031E-10  0.1920E+03
      5.635 -0.4425E-12  0.1920E+03
      5.697 -0.1573E-13  0.1920E+03
      5.759 -0.4493E-15  0.1920E+03
      5.821  0.0000E+00  0.1920E+03
      5.882  0.0000E+00  0.1920E+03
      5.944  0.0000E+00  0.1920E+03
      6.006  0.0000E+00  0.1920E+03
      6.068  0.0000E+00  0.1920E+03
      6.130  0.0000E+00  0.1920E+03
      6.191  0.0000E+00  0.1920E+03
      6.253  0.0000E+00  0.1920E+03
      6.315  0.0000E+00  0.1920E+03
      6.377  0.0000E+00  0.1920E+03
      6.438  0.0000E+00  0.1920E+03
      6.500  0.0000E+00  0.1920E+03
