   17   17    1    1
  0.4847811E+02  0.5557859E-09  0.5557859E-09  0.3080696E-08  0.5000000E-15
  1.000000000000000E-004
  CAR 
 unknown system                          
    161     20     96
 
  0.6250000E-01  0.6250000E-01  0.0000000E+00  0.3125000E-01
    1      -10.032816   1.000000
    2       -8.831788   1.000000
    3       -7.804864   1.000000
    4       -7.625858   1.000000
    5       -7.520687   1.000000
    6       -7.291808   1.000000
    7       -7.275832   1.000000
    8       -7.152093   1.000000
    9       -7.138439   1.000000
   10       -7.126104   1.000000
   11       -7.061797   1.000000
   12       -6.805325   1.000000
   13       -6.792472   1.000000
   14       -6.665927   1.000000
   15       -6.665381   1.000000
   16       -6.473796   1.000000
   17       -6.445065   1.000000
   18       -6.374084   1.000000
   19       -6.367659   1.000000
   20       -6.353669   1.000000
   21       -5.830435   1.000000
   22       -5.829055   1.000000
   23       -5.415602   1.000000
   24       -4.991419   1.000000
   25       -4.987605   1.000000
   26       -4.553651   1.000000
   27       -4.513046   1.000000
   28       -4.511954   1.000000
   29       -4.472597   1.000000
   30       -4.431626   1.000000
   31       -4.218832   1.000000
   32       -4.193296   1.000000
   33       -4.168452   1.000000
   34       -4.050460   1.000000
   35       -4.046593   1.000000
   36       -3.977880   1.000000
   37       -3.977698   1.000000
   38       -3.852356   1.000000
   39       -3.834395   1.000000
   40       -3.783587   1.000000
   41       -3.550143   1.000000
   42       -3.504761   1.000000
   43       -3.380415   1.000000
   44       -3.343823   1.000000
   45       -3.330391   1.000000
   46       -3.166750   1.000000
   47       -3.136048   1.000000
   48       -2.834081   1.000000
   49       -2.794051   1.000000
   50       -2.658781   1.000000
   51       -2.593362   1.000000
   52       -2.469759   1.000000
   53       -2.235612   1.000000
   54       -2.230667   1.000000
   55       -2.016872   1.000000
   56       -1.995397   1.000000
   57       -1.714836   1.000000
   58       -1.689399   1.000000
   59       -1.581907   1.000000
   60       -1.581373   1.000000
   61       -1.477875   1.000000
   62       -1.475739   1.000000
   63       -1.086686   1.004787
   64       -1.068911   1.006538
   65       -1.049405   1.008988
   66       -1.031374   1.011786
   67       -0.975718   1.023308
   68       -0.882953   1.033923
   69       -0.862779   1.027973
   70       -0.806205   0.975282
   71       -0.731896   0.794405
   72       -0.727972   0.781178
   73       -0.645537   0.452578
   74       -0.588244   0.228069
   75       -0.578199   0.194296
   76       -0.552820   0.119264
   77       -0.506667   0.023727
   78       -0.392933  -0.034254
   79       -0.371364  -0.030744
   80       -0.340518  -0.023935
   81       -0.179219  -0.001884
   82       -0.144977  -0.000886
   83       -0.051486  -0.000081
   84        0.017964  -0.000010
   85        0.136369  -0.000000
   86        0.252144  -0.000000
   87        0.500724  -0.000000
   88        0.519480  -0.000000
   89        1.318023  -0.000000
   90        1.439578  -0.000000
   91        1.684421  -0.000000
   92        1.744686  -0.000000
   93        1.848263  -0.000000
   94        1.899494  -0.000000
   95        2.256122  -0.000000
   96        2.700700  -0.000000
 
  0.1875000E+00  0.6250000E-01  0.0000000E+00  0.6250000E-01
    1       -9.830346   1.000000
    2       -8.637004   1.000000
    3       -7.630930   1.000000
    4       -7.535676   1.000000
    5       -7.355239   1.000000
    6       -7.250787   1.000000
    7       -7.151333   1.000000
    8       -7.073541   1.000000
    9       -7.025375   1.000000
   10       -6.962997   1.000000
   11       -6.952174   1.000000
   12       -6.720844   1.000000
   13       -6.646231   1.000000
   14       -6.566593   1.000000
   15       -6.555537   1.000000
   16       -6.391929   1.000000
   17       -6.340570   1.000000
   18       -6.266644   1.000000
   19       -6.228613   1.000000
   20       -6.165531   1.000000
   21       -5.765303   1.000000
   22       -5.760982   1.000000
   23       -5.362189   1.000000
   24       -4.989796   1.000000
   25       -4.960763   1.000000
   26       -4.622718   1.000000
   27       -4.541860   1.000000
   28       -4.477054   1.000000
   29       -4.456899   1.000000
   30       -4.428780   1.000000
   31       -4.343296   1.000000
   32       -4.317579   1.000000
   33       -4.079356   1.000000
   34       -4.045531   1.000000
   35       -4.003374   1.000000
   36       -3.956437   1.000000
   37       -3.897335   1.000000
   38       -3.855675   1.000000
   39       -3.823588   1.000000
   40       -3.737921   1.000000
   41       -3.663011   1.000000
   42       -3.538151   1.000000
   43       -3.474672   1.000000
   44       -3.442398   1.000000
   45       -3.398818   1.000000
   46       -3.348033   1.000000
   47       -3.263752   1.000000
   48       -3.044781   1.000000
   49       -2.933035   1.000000
   50       -2.812678   1.000000
   51       -2.710063   1.000000
   52       -2.557158   1.000000
   53       -2.332625   1.000000
   54       -2.288858   1.000000
   55       -2.099033   1.000000
   56       -2.061444   1.000000
   57       -1.954384   1.000000
   58       -1.840035   1.000000
   59       -1.745989   1.000000
   60       -1.707700   1.000000
   61       -1.670943   1.000000
   62       -1.643365   1.000000
   63       -1.536092   1.000000
   64       -1.484283   1.000000
   65       -1.427848   1.000000
   66       -1.334385   1.000009
   67       -1.164822   1.000965
   68       -1.073016   1.006095
   69       -1.004329   1.016931
   70       -0.972517   1.024049
   71       -0.941544   1.030866
   72       -0.896207   1.035337
   73       -0.862690   1.027935
   74       -0.788412   0.944441
   75       -0.735882   0.807499
   76       -0.705753   0.700555
   77       -0.653210   0.484964
   78       -0.619802   0.346524
   79       -0.577767   0.192893
   80       -0.551218   0.115054
   81       -0.478906  -0.009499
   82       -0.396355  -0.034631
   83       -0.307012  -0.016476
   84       -0.229995  -0.005067
   85       -0.033730  -0.000048
   86        0.296942  -0.000000
   87        0.381780  -0.000000
   88        0.545480  -0.000000
   89        0.936608  -0.000000
   90        1.118175  -0.000000
   91        1.398528  -0.000000
   92        1.645006  -0.000000
   93        2.243624  -0.000000
   94        2.419087  -0.000000
   95        2.679105  -0.000000
   96        3.149704  -0.000000
 
  0.3125000E+00  0.6250000E-01  0.0000000E+00  0.6250000E-01
    1       -9.381146   1.000000
    2       -8.227669   1.000000
    3       -7.540823   1.000000
    4       -7.298996   1.000000
    5       -7.148845   1.000000
    6       -6.966117   1.000000
    7       -6.941620   1.000000
    8       -6.888757   1.000000
    9       -6.738907   1.000000
   10       -6.693308   1.000000
   11       -6.648871   1.000000
   12       -6.566000   1.000000
   13       -6.383839   1.000000
   14       -6.336856   1.000000
   15       -6.243844   1.000000
   16       -6.229919   1.000000
   17       -6.094802   1.000000
   18       -5.997900   1.000000
   19       -5.933713   1.000000
   20       -5.828181   1.000000
   21       -5.612151   1.000000
   22       -5.565043   1.000000
   23       -5.257944   1.000000
   24       -5.036405   1.000000
   25       -4.936228   1.000000
   26       -4.829668   1.000000
   27       -4.726785   1.000000
   28       -4.650468   1.000000
   29       -4.567183   1.000000
   30       -4.426199   1.000000
   31       -4.363886   1.000000
   32       -4.300348   1.000000
   33       -4.217347   1.000000
   34       -4.118656   1.000000
   35       -4.045685   1.000000
   36       -3.941941   1.000000
   37       -3.887755   1.000000
   38       -3.824370   1.000000
   39       -3.793580   1.000000
   40       -3.731140   1.000000
   41       -3.709769   1.000000
   42       -3.655980   1.000000
   43       -3.639501   1.000000
   44       -3.628861   1.000000
   45       -3.557672   1.000000
   46       -3.507891   1.000000
   47       -3.413396   1.000000
   48       -3.225643   1.000000
   49       -3.076607   1.000000
   50       -2.988779   1.000000
   51       -2.886683   1.000000
   52       -2.800601   1.000000
   53       -2.683472   1.000000
   54       -2.592381   1.000000
   55       -2.565921   1.000000
   56       -2.451282   1.000000
   57       -2.400187   1.000000
   58       -2.355502   1.000000
   59       -2.297916   1.000000
   60       -2.204645   1.000000
   61       -2.173814   1.000000
   62       -2.094909   1.000000
   63       -1.918915   1.000000
   64       -1.858666   1.000000
   65       -1.806063   1.000000
   66       -1.675898   1.000000
   67       -1.576586   1.000000
   68       -1.449849   1.000000
   69       -1.418820   1.000000
   70       -1.373491   1.000002
   71       -1.351774   1.000005
   72       -1.295379   1.000030
   73       -1.179739   1.000683
   74       -1.118237   1.002621
   75       -1.062343   1.007298
   76       -0.975298   1.023405
   77       -0.926932   1.033406
   78       -0.851388   1.022108
   79       -0.757639   0.872492
   80       -0.706371   0.702918
   81       -0.668218   0.548378
   82       -0.563787   0.149793
   83       -0.459797  -0.023481
   84       -0.407103  -0.035375
   85       -0.357113  -0.027729
   86       -0.144859  -0.000884
   87        0.397014  -0.000000
   88        0.654398  -0.000000
   89        1.014385  -0.000000
   90        1.382848  -0.000000
   91        1.841115  -0.000000
   92        1.995315  -0.000000
   93        2.370457  -0.000000
   94        2.482618  -0.000000
   95        3.221786  -0.000000
   96        3.541949  -0.000000
 
  0.4375000E+00  0.6250000E-01  0.0000000E+00  0.6250000E-01
    1       -8.753731   1.000000
    2       -7.874302   1.000000
    3       -7.657921   1.000000
    4       -7.297810   1.000000
    5       -6.967366   1.000000
    6       -6.683076   1.000000
    7       -6.609512   1.000000
    8       -6.471014   1.000000
    9       -6.437998   1.000000
   10       -6.395723   1.000000
   11       -6.375030   1.000000
   12       -6.255263   1.000000
   13       -6.092060   1.000000
   14       -6.059278   1.000000
   15       -5.930440   1.000000
   16       -5.864610   1.000000
   17       -5.802657   1.000000
   18       -5.714109   1.000000
   19       -5.647593   1.000000
   20       -5.502197   1.000000
   21       -5.360872   1.000000
   22       -5.292755   1.000000
   23       -5.234911   1.000000
   24       -5.075396   1.000000
   25       -5.055441   1.000000
   26       -4.961163   1.000000
   27       -4.867095   1.000000
   28       -4.787691   1.000000
   29       -4.733848   1.000000
   30       -4.625066   1.000000
   31       -4.547229   1.000000
   32       -4.449654   1.000000
   33       -4.433379   1.000000
   34       -4.322687   1.000000
   35       -4.270498   1.000000
   36       -4.173930   1.000000
   37       -4.134875   1.000000
   38       -4.050824   1.000000
   39       -3.963495   1.000000
   40       -3.861001   1.000000
   41       -3.807076   1.000000
   42       -3.658416   1.000000
   43       -3.637606   1.000000
   44       -3.592200   1.000000
   45       -3.518318   1.000000
   46       -3.468832   1.000000
   47       -3.433620   1.000000
   48       -3.402138   1.000000
   49       -3.333710   1.000000
   50       -3.220650   1.000000
   51       -3.173303   1.000000
   52       -3.126132   1.000000
   53       -3.029589   1.000000
   54       -3.019240   1.000000
   55       -2.907660   1.000000
   56       -2.863549   1.000000
   57       -2.768280   1.000000
   58       -2.694372   1.000000
   59       -2.620967   1.000000
   60       -2.566501   1.000000
   61       -2.374482   1.000000
   62       -2.284015   1.000000
   63       -2.235172   1.000000
   64       -2.167386   1.000000
   65       -2.105217   1.000000
   66       -2.013765   1.000000
   67       -1.947305   1.000000
   68       -1.902887   1.000000
   69       -1.819760   1.000000
   70       -1.757074   1.000000
   71       -1.678534   1.000000
   72       -1.653099   1.000000
   73       -1.535149   1.000000
   74       -1.379496   1.000002
   75       -1.282643   1.000044
   76       -1.147302   1.001427
   77       -1.054643   1.008272
   78       -0.982400   1.021768
   79       -0.861219   1.027287
   80       -0.740899   0.823476
   81       -0.687417   0.628031
   82       -0.640372   0.430895
   83       -0.527083   0.059445
   84       -0.391806  -0.034117
   85       -0.366260  -0.029707
   86       -0.254124  -0.007659
   87        0.423208  -0.000000
   88        0.811140  -0.000000
   89        1.178267  -0.000000
   90        1.582134  -0.000000
   91        1.936053  -0.000000
   92        2.144209  -0.000000
   93        2.527931  -0.000000
   94        2.605518  -0.000000
   95        3.506610  -0.000000
   96        3.829859  -0.000000
 
 -0.4375000E+00  0.6250000E-01  0.0000000E+00  0.6250000E-01
    1       -8.420795   1.000000
    2       -8.078379   1.000000
    3       -7.598840   1.000000
    4       -7.211391   1.000000
    5       -7.025123   1.000000
    6       -6.577515   1.000000
    7       -6.526829   1.000000
    8       -6.397343   1.000000
    9       -6.343844   1.000000
   10       -6.286514   1.000000
   11       -6.202399   1.000000
   12       -6.147590   1.000000
   13       -6.030456   1.000000
   14       -5.982195   1.000000
   15       -5.872049   1.000000
   16       -5.715985   1.000000
   17       -5.689363   1.000000
   18       -5.560974   1.000000
   19       -5.508347   1.000000
   20       -5.465176   1.000000
   21       -5.366895   1.000000
   22       -5.311841   1.000000
   23       -5.214641   1.000000
   24       -5.093296   1.000000
   25       -5.060959   1.000000
   26       -4.951168   1.000000
   27       -4.894949   1.000000
   28       -4.809809   1.000000
   29       -4.787246   1.000000
   30       -4.698363   1.000000
   31       -4.682755   1.000000
   32       -4.579453   1.000000
   33       -4.457715   1.000000
   34       -4.407860   1.000000
   35       -4.353042   1.000000
   36       -4.209303   1.000000
   37       -4.148587   1.000000
   38       -4.074904   1.000000
   39       -4.023185   1.000000
   40       -3.925913   1.000000
   41       -3.852409   1.000000
   42       -3.767817   1.000000
   43       -3.700125   1.000000
   44       -3.607777   1.000000
   45       -3.539204   1.000000
   46       -3.510695   1.000000
   47       -3.488314   1.000000
   48       -3.466099   1.000000
   49       -3.444103   1.000000
   50       -3.389734   1.000000
   51       -3.307093   1.000000
   52       -3.211961   1.000000
   53       -3.157477   1.000000
   54       -2.937173   1.000000
   55       -2.896733   1.000000
   56       -2.820235   1.000000
   57       -2.774640   1.000000
   58       -2.666818   1.000000
   59       -2.627931   1.000000
   60       -2.547763   1.000000
   61       -2.480684   1.000000
   62       -2.384317   1.000000
   63       -2.338531   1.000000
   64       -2.224279   1.000000
   65       -2.153445   1.000000
   66       -2.119627   1.000000
   67       -2.030597   1.000000
   68       -1.998406   1.000000
   69       -1.895462   1.000000
   70       -1.859004   1.000000
   71       -1.750070   1.000000
   72       -1.716171   1.000000
   73       -1.674315   1.000000
   74       -1.499267   1.000000
   75       -1.328653   1.000011
   76       -1.289635   1.000036
   77       -1.064773   1.007009
   78       -0.991242   1.019766
   79       -0.782658   0.932800
   80       -0.745008   0.836128
   81       -0.686994   0.626306
   82       -0.626647   0.374151
   83       -0.521343   0.048375
   84       -0.390971  -0.034011
   85       -0.365370  -0.029521
   86       -0.338097  -0.023374
   87        0.467823  -0.000000
   88        0.851934  -0.000000
   89        1.249737  -0.000000
   90        1.568871  -0.000000
   91        1.939703  -0.000000
   92        2.088020  -0.000000
   93        2.586045  -0.000000
   94        2.708986  -0.000000
   95        3.711979  -0.000000
   96        3.907383  -0.000000
 
 -0.3125000E+00  0.6250000E-01  0.0000000E+00  0.6250000E-01
    1       -9.082790   1.000000
    2       -7.992922   1.000000
    3       -7.583744   1.000000
    4       -7.321551   1.000000
    5       -6.981007   1.000000
    6       -6.861811   1.000000
    7       -6.746564   1.000000
    8       -6.680790   1.000000
    9       -6.578194   1.000000
   10       -6.539854   1.000000
   11       -6.517121   1.000000
   12       -6.419552   1.000000
   13       -6.226669   1.000000
   14       -6.193570   1.000000
   15       -6.093482   1.000000
   16       -6.025898   1.000000
   17       -5.965984   1.000000
   18       -5.818778   1.000000
   19       -5.811180   1.000000
   20       -5.651760   1.000000
   21       -5.493048   1.000000
   22       -5.398544   1.000000
   23       -5.199810   1.000000
   24       -5.073716   1.000000
   25       -5.005975   1.000000
   26       -4.944663   1.000000
   27       -4.790349   1.000000
   28       -4.738393   1.000000
   29       -4.663639   1.000000
   30       -4.490607   1.000000
   31       -4.425968   1.000000
   32       -4.374809   1.000000
   33       -4.269429   1.000000
   34       -4.195458   1.000000
   35       -4.143158   1.000000
   36       -4.057120   1.000000
   37       -4.020210   1.000000
   38       -3.987330   1.000000
   39       -3.885477   1.000000
   40       -3.838836   1.000000
   41       -3.705867   1.000000
   42       -3.670013   1.000000
   43       -3.634360   1.000000
   44       -3.586357   1.000000
   45       -3.535405   1.000000
   46       -3.427027   1.000000
   47       -3.406866   1.000000
   48       -3.347751   1.000000
   49       -3.192347   1.000000
   50       -3.057202   1.000000
   51       -2.988181   1.000000
   52       -2.972264   1.000000
   53       -2.888739   1.000000
   54       -2.839613   1.000000
   55       -2.759888   1.000000
   56       -2.731962   1.000000
   57       -2.650818   1.000000
   58       -2.601875   1.000000
   59       -2.571512   1.000000
   60       -2.442840   1.000000
   61       -2.390744   1.000000
   62       -2.188340   1.000000
   63       -2.060881   1.000000
   64       -1.994069   1.000000
   65       -1.953301   1.000000
   66       -1.857923   1.000000
   67       -1.812837   1.000000
   68       -1.736670   1.000000
   69       -1.671135   1.000000
   70       -1.573951   1.000000
   71       -1.524989   1.000000
   72       -1.468926   1.000000
   73       -1.374948   1.000002
   74       -1.240660   1.000145
   75       -1.180460   1.000671
   76       -1.056783   1.007992
   77       -0.962842   1.026278
   78       -0.944213   1.030334
   79       -0.872482   1.031478
   80       -0.730755   0.790594
   81       -0.690787   0.641680
   82       -0.647225   0.459686
   83       -0.524346   0.054065
   84       -0.397686  -0.034760
   85       -0.367609  -0.029986
   86       -0.157472  -0.001176
   87        0.364567  -0.000000
   88        0.742071  -0.000000
   89        1.093013  -0.000000
   90        1.532831  -0.000000
   91        1.909818  -0.000000
   92        2.206630  -0.000000
   93        2.366914  -0.000000
   94        2.515706  -0.000000
   95        3.331841  -0.000000
   96        3.719793  -0.000000
 
 -0.1875000E+00  0.6250000E-01  0.0000000E+00  0.6250000E-01
    1       -9.633670   1.000000
    2       -8.452826   1.000000
    3       -7.558354   1.000000
    4       -7.398507   1.000000
    5       -7.244613   1.000000
    6       -7.167131   1.000000
    7       -7.049978   1.000000
    8       -7.005712   1.000000
    9       -6.897605   1.000000
   10       -6.845470   1.000000
   11       -6.806847   1.000000
   12       -6.653193   1.000000
   13       -6.523967   1.000000
   14       -6.466868   1.000000
   15       -6.427279   1.000000
   16       -6.327270   1.000000
   17       -6.219029   1.000000
   18       -6.159963   1.000000
   19       -6.089050   1.000000
   20       -6.004593   1.000000
   21       -5.698900   1.000000
   22       -5.687785   1.000000
   23       -5.314146   1.000000
   24       -5.003833   1.000000
   25       -4.943303   1.000000
   26       -4.692256   1.000000
   27       -4.638961   1.000000
   28       -4.548628   1.000000
   29       -4.468567   1.000000
   30       -4.432716   1.000000
   31       -4.384706   1.000000
   32       -4.290298   1.000000
   33       -4.116259   1.000000
   34       -4.096610   1.000000
   35       -3.993269   1.000000
   36       -3.896132   1.000000
   37       -3.865747   1.000000
   38       -3.798129   1.000000
   39       -3.783103   1.000000
   40       -3.730213   1.000000
   41       -3.688617   1.000000
   42       -3.646365   1.000000
   43       -3.597802   1.000000
   44       -3.549252   1.000000
   45       -3.516981   1.000000
   46       -3.398510   1.000000
   47       -3.257878   1.000000
   48       -3.220896   1.000000
   49       -3.025861   1.000000
   50       -2.965374   1.000000
   51       -2.776041   1.000000
   52       -2.594979   1.000000
   53       -2.436356   1.000000
   54       -2.398860   1.000000
   55       -2.336352   1.000000
   56       -2.279674   1.000000
   57       -2.163341   1.000000
   58       -2.026350   1.000000
   59       -1.995740   1.000000
   60       -1.940534   1.000000
   61       -1.891309   1.000000
   62       -1.840964   1.000000
   63       -1.723077   1.000000
   64       -1.689705   1.000000
   65       -1.641580   1.000000
   66       -1.556186   1.000000
   67       -1.326658   1.000012
   68       -1.234091   1.000174
   69       -1.200437   1.000413
   70       -1.163990   1.000984
   71       -1.127236   1.002183
   72       -1.104364   1.003442
   73       -1.005488   1.016689
   74       -0.946634   1.029839
   75       -0.882539   1.033850
   76       -0.865103   1.028931
   77       -0.823024   0.997628
   78       -0.729983   0.787997
   79       -0.693326   0.651876
   80       -0.644434   0.447936
   81       -0.526948   0.059176
   82       -0.450661  -0.028011
   83       -0.427676  -0.034381
   84       -0.345568  -0.025103
   85       -0.259988  -0.008419
   86       -0.126748  -0.000577
   87        0.496285  -0.000000
   88        0.600559  -0.000000
   89        0.962394  -0.000000
   90        1.137339  -0.000000
   91        1.676799  -0.000000
   92        1.796504  -0.000000
   93        2.289116  -0.000000
   94        2.501242  -0.000000
   95        3.022155  -0.000000
   96        3.492077  -0.000000
 
 -0.6250000E-01  0.6250000E-01  0.0000000E+00  0.3125000E-01
    1       -9.964699   1.000000
    2       -8.765790   1.000000
    3       -7.741052   1.000000
    4       -7.592685   1.000000
    5       -7.470198   1.000000
    6       -7.275898   1.000000
    7       -7.231169   1.000000
    8       -7.121189   1.000000
    9       -7.105876   1.000000
   10       -7.065910   1.000000
   11       -7.030606   1.000000
   12       -6.775171   1.000000
   13       -6.740767   1.000000
   14       -6.632895   1.000000
   15       -6.630515   1.000000
   16       -6.432211   1.000000
   17       -6.427099   1.000000
   18       -6.335629   1.000000
   19       -6.322050   1.000000
   20       -6.288480   1.000000
   21       -5.809224   1.000000
   22       -5.806096   1.000000
   23       -5.397211   1.000000
   24       -4.988989   1.000000
   25       -4.977611   1.000000
   26       -4.578248   1.000000
   27       -4.504101   1.000000
   28       -4.491482   1.000000
   29       -4.487237   1.000000
   30       -4.403023   1.000000
   31       -4.292490   1.000000
   32       -4.248213   1.000000
   33       -4.121032   1.000000
   34       -4.055002   1.000000
   35       -4.021297   1.000000
   36       -3.957204   1.000000
   37       -3.944154   1.000000
   38       -3.874825   1.000000
   39       -3.839362   1.000000
   40       -3.763022   1.000000
   41       -3.592684   1.000000
   42       -3.461460   1.000000
   43       -3.442452   1.000000
   44       -3.382072   1.000000
   45       -3.359737   1.000000
   46       -3.253570   1.000000
   47       -3.174355   1.000000
   48       -2.903669   1.000000
   49       -2.860426   1.000000
   50       -2.689140   1.000000
   51       -2.609843   1.000000
   52       -2.551407   1.000000
   53       -2.270369   1.000000
   54       -2.246182   1.000000
   55       -2.035214   1.000000
   56       -1.997736   1.000000
   57       -1.748637   1.000000
   58       -1.699393   1.000000
   59       -1.654584   1.000000
   60       -1.610816   1.000000
   61       -1.553947   1.000000
   62       -1.547767   1.000000
   63       -1.292289   1.000033
   64       -1.236622   1.000162
   65       -1.191283   1.000517
   66       -1.106495   1.003303
   67       -1.030758   1.011891
   68       -0.953906   1.028284
   69       -0.871903   1.031304
   70       -0.858485   1.025997
   71       -0.805993   0.974959
   72       -0.804695   0.972960
   73       -0.730973   0.791326
   74       -0.686878   0.625834
   75       -0.659836   0.512996
   76       -0.589629   0.232892
   77       -0.563459   0.148838
   78       -0.493312   0.005667
   79       -0.454984  -0.026027
   80       -0.437526  -0.032445
   81       -0.307703  -0.016619
   82       -0.227949  -0.004884
   83       -0.146788  -0.000924
   84       -0.021158  -0.000033
   85        0.152152  -0.000000
   86        0.237809  -0.000000
   87        0.308491  -0.000000
   88        0.917795  -0.000000
   89        1.035862  -0.000000
   90        1.059277  -0.000000
   91        1.334761  -0.000000
   92        1.633848  -0.000000
   93        2.081704  -0.000000
   94        2.245764  -0.000000
   95        2.474232  -0.000000
   96        2.638700  -0.000000
 
  0.1875000E+00  0.1875000E+00  0.0000000E+00  0.3125000E-01
    1       -9.764229   1.000000
    2       -8.574538   1.000000
    3       -7.595588   1.000000
    4       -7.499769   1.000000
    5       -7.302962   1.000000
    6       -7.246321   1.000000
    7       -7.091561   1.000000
    8       -7.070237   1.000000
    9       -6.947354   1.000000
   10       -6.942095   1.000000
   11       -6.911039   1.000000
   12       -6.706225   1.000000
   13       -6.591530   1.000000
   14       -6.533685   1.000000
   15       -6.513738   1.000000
   16       -6.377145   1.000000
   17       -6.297361   1.000000
   18       -6.238606   1.000000
   19       -6.157706   1.000000
   20       -6.123162   1.000000
   21       -5.744088   1.000000
   22       -5.737179   1.000000
   23       -5.345924   1.000000
   24       -4.994168   1.000000
   25       -4.951989   1.000000
   26       -4.644456   1.000000
   27       -4.579113   1.000000
   28       -4.470486   1.000000
   29       -4.454567   1.000000
   30       -4.447633   1.000000
   31       -4.362439   1.000000
   32       -4.312046   1.000000
   33       -4.085939   1.000000
   34       -4.064757   1.000000
   35       -3.972833   1.000000
   36       -3.967390   1.000000
   37       -3.866571   1.000000
   38       -3.855274   1.000000
   39       -3.797376   1.000000
   40       -3.704820   1.000000
   41       -3.698684   1.000000
   42       -3.589602   1.000000
   43       -3.517025   1.000000
   44       -3.468088   1.000000
   45       -3.447575   1.000000
   46       -3.327392   1.000000
   47       -3.301447   1.000000
   48       -3.113161   1.000000
   49       -2.947754   1.000000
   50       -2.891481   1.000000
   51       -2.731538   1.000000
   52       -2.566635   1.000000
   53       -2.348572   1.000000
   54       -2.329805   1.000000
   55       -2.150994   1.000000
   56       -2.145676   1.000000
   57       -2.026220   1.000000
   58       -1.939752   1.000000
   59       -1.816860   1.000000
   60       -1.775419   1.000000
   61       -1.735435   1.000000
   62       -1.646674   1.000000
   63       -1.639539   1.000000
   64       -1.579062   1.000000
   65       -1.521975   1.000000
   66       -1.362169   1.000004
   67       -1.204822   1.000370
   68       -1.163314   1.000999
   69       -1.114290   1.002836
   70       -1.009762   1.015813
   71       -1.002359   1.017345
   72       -0.947337   1.029692
   73       -0.900091   1.035448
   74       -0.837305   1.011863
   75       -0.818578   0.992331
   76       -0.783449   0.934451
   77       -0.685219   0.619061
   78       -0.679926   0.597283
   79       -0.665724   0.537872
   80       -0.559689   0.138040
   81       -0.482489  -0.006122
   82       -0.467049  -0.018935
   83       -0.327027  -0.020833
   84       -0.268794  -0.009662
   85       -0.227978  -0.004886
   86       -0.113160  -0.000414
   87        0.523496  -0.000000
   88        0.962215  -0.000000
   89        0.983476  -0.000000
   90        1.041444  -0.000000
   91        1.594098  -0.000000
   92        1.621737  -0.000000
   93        2.092855  -0.000000
   94        2.319906  -0.000000
   95        2.714016  -0.000000
   96        3.543508  -0.000000
 
  0.3125000E+00  0.1875000E+00  0.0000000E+00  0.6250000E-01
    1       -9.442247   1.000000
    2       -8.279552   1.000000
    3       -7.524039   1.000000
    4       -7.249732   1.000000
    5       -7.186729   1.000000
    6       -7.045574   1.000000
    7       -6.988073   1.000000
    8       -6.906124   1.000000
    9       -6.829930   1.000000
   10       -6.706582   1.000000
   11       -6.666253   1.000000
   12       -6.560796   1.000000
   13       -6.453152   1.000000
   14       -6.366762   1.000000
   15       -6.304471   1.000000
   16       -6.237395   1.000000
   17       -6.108047   1.000000
   18       -6.037206   1.000000
   19       -5.987528   1.000000
   20       -5.867580   1.000000