<?xml version="1.0" encoding="ISO-8859-1"?>
<modeling>
 <generator>
  <i name="program" type="string">vasp </i>
  <i name="version" type="string">5.4.4.18Apr17-6-g9f103f2a35  </i>
  <i name="subversion" type="string">(build Apr 28 2017 10:53:45) complex            parallel </i>
  <i name="platform" type="string">LinuxIFC </i>
  <i name="date" type="string">2020 02 16 </i>
  <i name="time" type="string">20:48:12 </i>
 </generator>
 <incar>
  <i type="string" name="PREC">normal</i>
  <i type="int" name="ISPIN">     1</i>
  <i type="int" name="IBRION">     2</i>
  <i name="EDIFF">      0.00001000</i>
  <i name="EDIFFG">     -0.05000000</i>
  <i type="int" name="NSW">     0</i>
  <i name="ENCUT">    350.00000000</i>
  <i type="logical" name="LWAVE"> F  </i>
  <i type="logical" name="LCHARG"> F  </i>
  <v type="int" name="KPOINT_BSE">    -1     0     0     0</v>
  <i type="string" name="GGA"> PE</i>
  <i type="int" name="IDIPOL">     3</i>
 </incar>
 <structure name="primitive_cell" >
  <crystal>
   <varray name="basis" >
    <v>       5.55785930       0.00000000       0.00000000 </v>
    <v>       2.77892965       4.81324734       0.00000000 </v>
    <v>       0.00000000       0.00000000      30.80695967 </v>
   </varray>
   <i name="volume">    824.12780743 </i>
   <varray name="rec_basis" >
    <v>       0.17992539      -0.10387997       0.00000000 </v>
    <v>       0.00000000       0.20775994       0.00000000 </v>
    <v>       0.00000000       0.00000000       0.03246020 </v>
   </varray>
  </crystal>
  <varray name="positions" >
   <v>       0.00000000       0.00000000       0.38952237 </v>
   <v>       0.00000000      -0.50000000       0.38952237 </v>
   <v>      -0.50000000      -0.50000000       0.38952237 </v>
   <v>      -0.50000000       0.00000000       0.38952237 </v>
   <v>       0.16652883       0.16652883       0.46542487 </v>
   <v>       0.16652883      -0.33305766       0.46542487 </v>
   <v>      -0.33305766       0.16652883       0.46542487 </v>
   <v>      -0.33333333      -0.33333333       0.46426737 </v>
   <v>      -0.16603131      -0.16603131      -0.45994801 </v>
   <v>      -0.16603131       0.33206261      -0.45994801 </v>
   <v>       0.33206261      -0.16603131      -0.45994801 </v>
   <v>       0.33333333       0.33333333      -0.46005508 </v>
   <v>       0.00000000       0.00000000      -0.38095648 </v>
   <v>      -0.49951272      -0.00097456      -0.38501086 </v>
   <v>      -0.00097456      -0.49951272      -0.38501086 </v>
   <v>      -0.49951272      -0.49951272      -0.38501086 </v>
   <v>       0.00000000       0.00000000      -0.33046564 </v>
  </varray>
 </structure>
 <varray name="primitive_index" >
  <v type="int" >        1 </v>
  <v type="int" >        3 </v>
  <v type="int" >        4 </v>
  <v type="int" >        2 </v>
  <v type="int" >        5 </v>
  <v type="int" >        7 </v>
  <v type="int" >        6 </v>
  <v type="int" >        8 </v>
  <v type="int" >       11 </v>
  <v type="int" >        9 </v>
  <v type="int" >       12 </v>
  <v type="int" >       10 </v>
  <v type="int" >       16 </v>
  <v type="int" >       13 </v>
  <v type="int" >       14 </v>
  <v type="int" >       15 </v>
  <v type="int" >       17 </v>
 </varray>
 <kpoints>
  <generation param="Monkhorst-Pack">
   <v type="int" name="divisions">       8        8        1 </v>
   <v name="usershift">      0.00000000       0.00000000       0.00000000 </v>
   <v name="genvec1">      0.12500000       0.00000000       0.00000000 </v>
   <v name="genvec2">      0.00000000       0.12500000       0.00000000 </v>
   <v name="genvec3">      0.00000000       0.00000000       1.00000000 </v>
   <v name="shift">      0.50000000       0.50000000       0.00000000 </v>
  </generation>
  <varray name="kpointlist" >
   <v>       0.06250000       0.06250000       0.00000000 </v>
   <v>       0.18750000       0.06250000       0.00000000 </v>
   <v>       0.31250000       0.06250000       0.00000000 </v>
   <v>       0.43750000       0.06250000       0.00000000 </v>
   <v>      -0.43750000       0.06250000       0.00000000 </v>
   <v>      -0.31250000       0.06250000       0.00000000 </v>
   <v>      -0.18750000       0.06250000       0.00000000 </v>
   <v>      -0.06250000       0.06250000       0.00000000 </v>
   <v>       0.18750000       0.18750000       0.00000000 </v>
   <v>       0.31250000       0.18750000       0.00000000 </v>
   <v>       0.43750000       0.18750000       0.00000000 </v>
   <v>      -0.43750000       0.18750000       0.00000000 </v>
   <v>      -0.31250000       0.18750000       0.00000000 </v>
   <v>      -0.18750000       0.18750000       0.00000000 </v>
   <v>       0.31250000       0.31250000       0.00000000 </v>
   <v>       0.43750000       0.31250000       0.00000000 </v>
   <v>      -0.43750000       0.31250000       0.00000000 </v>
   <v>      -0.31250000       0.31250000       0.00000000 </v>
   <v>       0.43750000       0.43750000       0.00000000 </v>
   <v>      -0.43750000       0.43750000       0.00000000 </v>
  </varray>
  <varray name="weights" >
   <v>       0.03125000 </v>
   <v>       0.06250000 </v>
   <v>       0.06250000 </v>
   <v>       0.06250000 </v>
   <v>       0.06250000 </v>
   <v>       0.06250000 </v>
   <v>       0.06250000 </v>
   <v>       0.03125000 </v>
   <v>       0.03125000 </v>
   <v>       0.06250000 </v>
   <v>       0.06250000 </v>
   <v>       0.06250000 </v>
   <v>       0.06250000 </v>
   <v>       0.03125000 </v>
   <v>       0.03125000 </v>
   <v>       0.06250000 </v>
   <v>       0.06250000 </v>
   <v>       0.03125000 </v>
   <v>       0.03125000 </v>
   <v>       0.03125000 </v>
  </varray>
 </kpoints>
 <parameters>
  <separator name="general" >
   <i type="string" name="SYSTEM">unknown system</i>
   <i type="logical" name="LCOMPAT"> F  </i>
  </separator>
  <separator name="electronic" >
   <i type="string" name="PREC">normal</i>
   <i name="ENMAX">    350.00000000</i>
   <i name="ENAUG">    400.00000000</i>
   <i name="EDIFF">      0.00001000</i>
   <i type="int" name="IALGO">    38</i>
   <i type="int" name="IWAVPR">    10</i>
   <i type="int" name="NBANDS">    96</i>
   <i name="NELECT">    161.00000000</i>
   <i type="int" name="TURBO">     0</i>
   <i type="int" name="IRESTART">     0</i>
   <i type="int" name="NREBOOT">     0</i>
   <i type="int" name="NMIN">     0</i>
   <i name="EREF">      0.00000000</i>
   <separator name="electronic smearing" >
    <i type="int" name="ISMEAR">     1</i>
    <i name="SIGMA">      0.20000000</i>
    <i name="KSPACING">      0.50000000</i>
    <i type="logical" name="KGAMMA"> T  </i>
   </separator>
   <separator name="electronic projectors" >
    <i type="logical" name="LREAL"> F  </i>
    <v name="ROPT">      0.00000000      0.00000000      0.00000000      0.00000000</v>
    <i type="int" name="LMAXPAW">  -100</i>
    <i type="int" name="LMAXMIX">     2</i>
    <i type="logical" name="NLSPLINE"> F  </i>
   </separator>
   <separator name="electronic startup" >
    <i type="int" name="ISTART">     0</i>
    <i type="int" name="ICHARG">     2</i>
    <i type="int" name="INIWAV">     1</i>
   </separator>
   <separator name="electronic spin" >
    <i type="int" name="ISPIN">     1</i>
    <i type="logical" name="LNONCOLLINEAR"> F  </i>
    <v name="MAGMOM">      1.00000000      1.00000000      1.00000000      1.00000000      1.00000000      1.00000000      1.00000000      1.00000000      1.00000000      1.00000000      1.00000000      1.00000000      1.00000000      1.00000000      1.00000000      1.00000000      1.00000000</v>
    <i name="NUPDOWN">     -1.00000000</i>
    <i type="logical" name="LSORBIT"> F  </i>
    <v name="SAXIS">      0.00000000      0.00000000      1.00000000</v>
    <i type="logical" name="LSPIRAL"> F  </i>
    <v name="QSPIRAL">      0.00000000      0.00000000      0.00000000</v>
    <i type="logical" name="LZEROZ"> F  </i>
   </separator>
   <separator name="electronic exchange-correlation" >
    <i type="logical" name="LASPH"> F  </i>
    <i type="logical" name="LMETAGGA"> F  </i>
   </separator>
   <separator name="electronic convergence" >
    <i type="int" name="NELM">    60</i>
    <i type="int" name="NELMDL">    -5</i>
    <i type="int" name="NELMIN">     2</i>
    <i name="ENINI">    350.00000000</i>
    <separator name="electronic convergence detail" >
     <i type="logical" name="LDIAG"> T  </i>
     <i type="logical" name="LSUBROT"> F  </i>
     <i name="WEIMIN">      0.00000000</i>
     <i name="EBREAK">      0.00000003</i>
     <i name="DEPER">      0.30000000</i>
     <i type="int" name="NRMM">     4</i>
     <i name="TIME">      0.40000000</i>
    </separator>
   </separator>
   <separator name="electronic mixer" >
    <i name="AMIX">      0.40000000</i>
    <i name="BMIX">      1.00000000</i>
    <i name="AMIN">      0.10000000</i>
    <i name="AMIX_MAG">      1.60000000</i>
    <i name="BMIX_MAG">      1.00000000</i>
    <separator name="electronic mixer details" >
     <i type="int" name="IMIX">     4</i>
     <i type="logical" name="MIXFIRST"> F  </i>
     <i type="int" name="MAXMIX">   -45</i>
     <i name="WC">    100.00000000</i>
     <i type="int" name="INIMIX">     1</i>
     <i type="int" name="MIXPRE">     1</i>
     <i type="int" name="MREMOVE">     5</i>
    </separator>
   </separator>
   <separator name="electronic dipolcorrection" >
    <i type="logical" name="LDIPOL"> F  </i>
    <i type="logical" name="LMONO"> F  </i>
    <i type="int" name="IDIPOL">     3</i>
    <i name="EPSILON">      1.00000000</i>
    <v name="DIPOL">   -100.00000000   -100.00000000   -100.00000000</v>
    <i name="EFIELD">      0.00000000</i>
   </separator>
  </separator>
  <separator name="grids" >
   <i type="int" name="NGX">    28</i>
   <i type="int" name="NGY">    28</i>
   <i type="int" name="NGZ">   144</i>
   <i type="int" name="NGXF">    56</i>
   <i type="int" name="NGYF">    56</i>
   <i type="int" name="NGZF">   288</i>
   <i type="logical" name="ADDGRID"> F  </i>
  </separator>
  <separator name="ionic" >
   <i type="int" name="NSW">     0</i>
   <i type="int" name="IBRION">    -1</i>
   <i type="int" name="MDALGO">     0</i>
   <i type="int" name="ISIF">     2</i>
   <i name="PSTRESS">      0.00000000</i>
   <i name="EDIFFG">     -0.05000000</i>
   <i type="int" name="NFREE">     1</i>
   <i name="POTIM">      0.50000000</i>
   <i name="SMASS">     -3.00000000</i>
   <i name="SCALEE">      1.00000000</i>
  </separator>
  <separator name="ionic md" >
   <i name="TEBEG">      0.00010000</i>
   <i name="TEEND">      0.00010000</i>
   <i type="int" name="NBLOCK">     1</i>
   <i type="int" name="KBLOCK">     1</i>
   <i type="int" name="NPACO">   256</i>
   <i name="APACO">     16.00000000</i>
  </separator>
  <separator name="symmetry" >
   <i type="int" name="ISYM">     2</i>
   <i name="SYMPREC">      0.00001000</i>
  </separator>
  <separator name="dos" >
   <i type="int" name="LORBIT">     0</i>
   <v name="RWIGS">     -1.00000000     -1.00000000     -1.00000000     -1.00000000</v>
   <i type="int" name="NEDOS">   301</i>
   <i name="EMIN">     10.00000000</i>
   <i name="EMAX">    -10.00000000</i>
   <i name="EFERMI">      0.00000000</i>
  </separator>
  <separator name="writing" >
   <i type="int" name="NWRITE">     2</i>
   <i type="logical" name="LWAVE"> F  </i>
   <i type="logical" name="LDOWNSAMPLE"> F  </i>
   <i type="logical" name="LCHARG"> F  </i>
   <i type="logical" name="LPARD"> F  </i>
   <i type="logical" name="LVTOT"> F  </i>
   <i type="logical" name="LVHAR"> F  </i>
   <i type="logical" name="LELF"> F  </i>
   <i type="logical" name="LOPTICS"> F  </i>
   <v name="STM">      0.00000000      0.00000000      0.00000000      0.00000000      0.00000000      0.00000000      0.00000000</v>
  </separator>
  <separator name="performance" >
   <i type="int" name="NPAR">    24</i>
   <i type="int" name="NSIM">     4</i>
   <i type="int" name="NBLK">    -1</i>
   <i type="logical" name="LPLANE"> T  </i>
   <i type="logical" name="LSCALAPACK"> T  </i>
   <i type="logical" name="LSCAAWARE"> F  </i>
   <i type="logical" name="LSCALU"> F  </i>
   <i type="logical" name="LASYNC"> F  </i>
   <i type="logical" name="LORBITALREAL"> F  </i>
  </separator>
  <separator name="miscellaneous" >
   <i type="int" name="IDIOT">     3</i>
   <i type="int" name="ISPECIAL">     0</i>
   <i type="logical" name="LMUSIC"> F  </i>
   <v name="POMASS">    192.22000000    195.08000000    196.96600000      1.00000000</v>
   <v name="DARWINR">      0.00000000      0.00000000      0.00000000      0.00000000</v>
   <v name="DARWINV">      1.00000000      1.00000000      1.00000000      1.00000000</v>
   <i type="logical" name="LCORR"> T  </i>
  </separator>
  <i type="logical" name="GGA_COMPAT"> T  </i>
  <i type="logical" name="LBERRY"> F  </i>
  <i type="int" name="ICORELEVEL">     0</i>
  <i type="logical" name="LDAU"> F  </i>
  <i type="int" name="I_CONSTRAINED_M">     0</i>
  <separator name="electronic exchange-correlation" >
   <i type="string" name="GGA">PE</i>
   <i type="int" name="VOSKOWN">     0</i>
   <i type="logical" name="LHFCALC"> F  </i>
   <i type="string" name="PRECFOCK"></i>
   <i type="logical" name="LSYMGRAD"> F  </i>
   <i type="logical" name="LHFONE"> F  </i>
   <i type="logical" name="LRHFCALC"> F  </i>
   <i type="logical" name="LTHOMAS"> F  </i>
   <i type="logical" name="LMODELHF"> F  </i>
   <i name="ENCUT4O">     -1.00000000</i>
   <i type="int" name="EXXOEP">     0</i>
   <i type="int" name="FOURORBIT">     0</i>
   <i name="AEXX">      0.00000000</i>
   <i name="HFALPHA">      0.00000000</i>
   <i name="MCALPHA">      0.00000000</i>
   <i name="ALDAX">      1.00000000</i>
   <i name="AGGAX">      1.00000000</i>
   <i name="ALDAC">      1.00000000</i>
   <i name="AGGAC">      1.00000000</i>
   <i type="int" name="NKREDX">     1</i>
   <i type="int" name="NKREDY">     1</i>
   <i type="int" name="NKREDZ">     1</i>
   <i type="logical" name="SHIFTRED"> F  </i>
   <i type="logical" name="ODDONLY"> F  </i>
   <i type="logical" name="EVENONLY"> F  </i>
   <i type="int" name="LMAXFOCK">     0</i>
   <i type="int" name="NMAXFOCKAE">     0</i>
   <i type="logical" name="LFOCKAEDFT"> F  </i>
   <i name="HFSCREEN">      0.00000000</i>
   <i name="HFSCREENC">      0.00000000</i>
   <i type="int" name="NBANDSGWLOW">     0</i>
  </separator>
  <separator name="vdW DFT" >
   <i type="logical" name="LUSE_VDW"> F  </i>
   <i name="Zab_VDW">     -0.84910000</i>
   <i name="PARAM1">      0.12340000</i>
   <i name="PARAM2">      1.00000000</i>
   <i name="PARAM3">      0.00000000</i>
  </separator>
  <separator name="model GW" >
   <i type="int" name="MODEL_GW">     0</i>
   <i name="MODEL_EPS0">     29.08686379</i>
   <i name="MODEL_ALPHA">      1.00000000</i>
  </separator>
  <separator name="linear response parameters" >
   <i type="logical" name="LEPSILON"> F  </i>
   <i type="logical" name="LRPA"> F  </i>
   <i type="logical" name="LNABLA"> F  </i>
   <i type="logical" name="LVEL"> F  </i>
   <i type="int" name="KINTER">     0</i>
   <i name="CSHIFT">      0.10000000</i>
   <i name="OMEGAMAX">     -1.00000000</i>
   <i name="DEG_THRESHOLD">      0.00200000</i>
   <i name="RTIME">     -0.10000000</i>
   <i name="WPLASMAI">      0.00000000</i>
   <v name="DFIELD">      0.00000000      0.00000000      0.00000000</v>
   <v name="WPLASMA">      0.00000000      0.00000000      0.00000000      0.00000000      0.00000000      0.00000000      0.00000000      0.00000000      0.00000000</v>
  </separator>
  <separator name="orbital magnetization" >
   <i type="logical" name="NUCIND"> F  </i>
   <v name="MAGPOS">      0.00000000      0.00000000      0.00000000</v>
   <i type="logical" name="LNICSALL"> T  </i>
   <i type="logical" name="ORBITALMAG"> F  </i>
   <i type="logical" name="LMAGBLOCH"> F  </i>
   <i type="logical" name="LCHIMAG"> F  </i>
   <i type="logical" name="LGAUGE"> T  </i>
   <i type="int" name="MAGATOM">     0</i>
   <v name="MAGDIPOL">      0.00000000      0.00000000      0.00000000</v>
   <v name="AVECCONST">      0.00000000      0.00000000      0.00000000</v>
  </separator>
  <separator name="response functions" >
   <i type="logical" name="LADDER"> F  </i>
   <i type="logical" name="LRPAFORCE"> F  </i>
   <i type="logical" name="LFXC"> F  </i>
   <i type="logical" name="LHARTREE"> T  </i>
   <i type="int" name="IBSE">     0</i>
   <v type="int" name="KPOINT">    -1     0     0     0</v>
   <i type="logical" name="LTCTE"> F  </i>
   <i type="logical" name="LTETE"> F  </i>
   <i type="logical" name="LTRIPLET"> F  </i>
   <i type="logical" name="LFXCEPS"> F  </i>
   <i type="logical" name="LFXHEG"> F  </i>
   <i type="int" name="NATURALO">     2</i>
   <i type="logical" name="L2ORDER"> F  </i>
   <i type="logical" name="LMP2LT"> F  </i>
   <i type="logical" name="LUSEW"> F  </i>
   <i name="ENCUTGW">     -2.00000000</i>
   <i name="ENCUTGWSOFT">     -2.00000000</i>
   <i name="ENCUTLF">     -1.00000000</i>
   <i type="int" name="LMAXMP2">    -1</i>
   <i name="SCISSOR">      0.00000000</i>
   <i type="int" name="NOMEGA">     0</i>
   <i type="int" name="NOMEGAR">     0</i>
   <i type="int" name="NBANDSGW">    -1</i>
   <i type="int" name="NBANDSO">    -1</i>
   <i type="int" name="NBANDSV">    -1</i>
   <i type="int" name="NELM">     1</i>
   <i type="int" name="NELMHF">     1</i>
   <i type="int" name="DIM">     3</i>
   <i type="int" name="ANTIRES">     0</i>
   <i name="OMEGAMAX">    -30.00000000</i>
   <i name="OMEGAMIN">    -30.00000000</i>
   <i name="OMEGATL">   -200.00000000</i>
   <i type="int" name="OMEGAGRID">   140</i>
   <i name="CSHIFT">     -0.10000000</i>
   <i type="logical" name="SELFENERGY"> F  </i>
   <i type="logical" name="LSPECTRAL"> F  </i>
   <i type="logical" name="LSPECTRALGW"> F  </i>
   <i type="logical" name="LSINGLES"> F  </i>
   <i type="logical" name="LFERMIGW"> F  </i>
   <i type="logical" name="ODDONLYGW"> F  </i>
   <i type="logical" name="EVENONLYGW"> F  </i>
   <i type="int" name="NKREDLFX">     1</i>
   <i type="int" name="NKREDLFY">     1</i>
   <i type="int" name="NKREDLFZ">     1</i>
   <i type="int" name="MAXMEM">  2800</i>
   <i type="int" name="TELESCOPE">     0</i>
   <i type="int" name="TAUPAR">     1</i>
   <i type="int" name="OMEGAPAR">    -1</i>
   <i name="LAMBDA">      1.00000000</i>
  </separator>
  <separator name="External order field" >
   <i name="OFIELD_KAPPA">      0.00000000</i>
   <v name="OFIELD_K">      0.00000000      0.00000000      0.00000000</v>
   <i name="OFIELD_Q6_NEAR">      0.00000000</i>
   <i name="OFIELD_Q6_FAR">      0.00000000</i>
   <i name="OFIELD_A">      0.00000000</i>
  </separator>
 </parameters>
 <atominfo>
  <atoms>      17 </atoms>
  <types>       4 </types>
  <array name="atoms" >
   <dimension dim="1">ion</dimension>
   <field type="string">element</field>
   <field type="int">atomtype</field>
   <set>
    <rc><c>Ir</c><c>   1</c></rc>
    <rc><c>Pt</c><c>   2</c></rc>
    <rc><c>Pt</c><c>   2</c></rc>
    <rc><c>Pt</c><c>   2</c></rc>
    <rc><c>Pt</c><c>   2</c></rc>
    <rc><c>Pt</c><c>   2</c></rc>
    <rc><c>Pt</c><c>   2</c></rc>
    <rc><c>Pt</c><c>   2</c></rc>
    <rc><c>Pt</c><c>   2</c></rc>
    <rc><c>Pt</c><c>   2</c></rc>
    <rc><c>Pt</c><c>   2</c></rc>
    <rc><c>Pt</c><c>   2</c></rc>
    <rc><c>Pt</c><c>   2</c></rc>
    <rc><c>Pt</c><c>   2</c></rc>
    <rc><c>Pt</c><c>   2</c></rc>
    <rc><c>Au</c><c>   3</c></rc>
    <rc><c>H </c><c>   4</c></rc>
   </set>
  </array>
  <array name="atomtypes" >
   <dimension dim="1">type</dimension>
   <field type="int">atomspertype</field>
   <field type="string">element</field>
   <field>mass</field>
   <field>valence</field>
   <field type="string">pseudopotential</field>
   <set>
    <rc><c>   1</c><c>Ir</c><c>    192.22000000</c><c>      9.00000000</c><c>  PAW_PBE Ir 06Sep2000                  </c></rc>
    <rc><c>  14</c><c>Pt</c><c>    195.08000000</c><c>     10.00000000</c><c>  PAW_PBE Pt 04Feb2005                  </c></rc>
    <rc><c>   1</c><c>Au</c><c>    196.96600000</c><c>     11.00000000</c><c>  PAW_PBE Au 04Oct2007                  </c></rc>
    <rc><c>   1</c><c>H </c><c>      1.00000000</c><c>      1.00000000</c><c>  PAW_PBE H 15Jun2001                   </c></rc>
   </set>
  </array>
 </atominfo>
 <structure name="initialpos" >
  <crystal>
   <varray name="basis" >
    <v>       5.55785930       0.00000000       0.00000000 </v>
    <v>       2.77892965       4.81324734       0.00000000 </v>
    <v>       0.00000000       0.00000000      30.80695967 </v>
   </varray>
   <i name="volume">    824.12780743 </i>
   <varray name="rec_basis" >
    <v>       0.17992539      -0.10387997       0.00000000 </v>
    <v>       0.00000000       0.20775994       0.00000000 </v>
    <v>       0.00000000       0.00000000       0.03246020 </v>
   </varray>
  </crystal>
  <varray name="positions" >
   <v>       0.00000000       0.00000000       0.38952237 </v>
   <v>       0.50000000       0.00000000       0.38952237 </v>
   <v>       0.00000000       0.50000000       0.38952237 </v>
   <v>       0.50000000       0.50000000       0.38952237 </v>
   <v>       0.16652883       0.16652883       0.46542487 </v>
   <v>       0.66694234       0.16652883       0.46542487 </v>
   <v>       0.16652883       0.66694234       0.46542487 </v>
   <v>       0.66666667       0.66666667       0.46426737 </v>
   <v>       0.83396869       0.33206261       0.54005199 </v>
   <v>       0.33333333       0.33333333       0.53994492 </v>
   <v>       0.83396869       0.83396869       0.54005199 </v>
   <v>       0.33206261       0.83396869       0.54005199 </v>
   <v>       0.50048728       0.99902544       0.61498914 </v>
   <v>       0.99902544       0.50048728       0.61498914 </v>
   <v>       0.50048728       0.50048728       0.61498914 </v>
   <v>       0.00000000       0.00000000       0.61904352 </v>
   <v>       0.00000000       0.00000000       0.66953436 </v>
  </varray>
  <varray name="selective"  type="logical" >
   <v type="logical" >  F  F  F </v>
   <v type="logical" >  F  F  F </v>
   <v type="logical" >  F  F  F </v>
   <v type="logical" >  F  F  F </v>
   <v type="logical" >  T  T  T </v>
   <v type="logical" >  T  T  T </v>
   <v type="logical" >  T  T  T </v>
   <v type="logical" >  T  T  T </v>
   <v type="logical" >  T  T  T </v>
   <v type="logical" >  T  T  T </v>
   <v type="logical" >  T  T  T </v>
   <v type="logical" >  T  T  T </v>
   <v type="logical" >  T  T  T </v>
   <v type="logical" >  T  T  T </v>
   <v type="logical" >  T  T  T </v>
   <v type="logical" >  T  T  T </v>
   <v type="logical" >  T  T  T </v>
  </varray>
  <nose>
   <v>      -3.00000000       0.00000000       0.00010000       0.00010000 </v>
  </nose>
 </structure>
 <calculation>
  <scstep>
   <time name="dav">    3.52    3.52</time>
   <time name="total">    3.54    3.55</time>
   <energy>
    <i name="alphaZ">    305.89839443 </i>
    <i name="ewald">  98572.80899501 </i>
    <i name="hartreedc">-110660.04897130 </i>
    <i name="XCdc">     48.79963046 </i>
    <i name="pawpsdc">  11173.35063782 </i>
    <i name="pawaedc"> -10713.98924482 </i>
    <i name="eentropy">     -0.00376571 </i>
    <i name="bandstr">    549.41930809 </i>
    <i name="atom">  11706.16234457 </i>
    <i name="e_fr_energy">    982.39732854 </i>
    <i name="e_wo_entrp">    982.40109425 </i>
    <i name="e_0_energy">    982.39858378 </i>
   </energy>
  </scstep>
  <scstep>
   <time name="dav">    5.02    5.02</time>
   <time name="total">    5.02    5.02</time>
   <energy>
    <i name="e_fr_energy">    -41.99997000 </i>
    <i name="e_wo_entrp">    -41.99365285 </i>
    <i name="e_0_energy">    -41.99786428 </i>
   </energy>
  </scstep>
  <scstep>
   <time name="dav">    4.37    4.37</time>
   <time name="total">    4.37    4.37</time>
   <energy>
    <i name="e_fr_energy">   -100.62634637 </i>
    <i name="e_wo_entrp">   -100.60279782 </i>
    <i name="e_0_energy">   -100.61849685 </i>
   </energy>
  </scstep>
  <scstep>
   <time name="dav">    5.00    5.00</time>
   <time name="total">    5.00    5.00</time>
   <energy>
    <i name="e_fr_energy">   -101.91676880 </i>
    <i name="e_wo_entrp">   -101.89150900 </i>
    <i name="e_0_energy">   -101.90834887 </i>
   </energy>
  </scstep>
  <scstep>
   <time name="dav">    5.09    5.09</time>
   <time name="total">    5.22    5.22</time>
   <energy>
    <i name="e_fr_energy">   -101.94653834 </i>
    <i name="e_wo_entrp">   -101.92126127 </i>
    <i name="e_0_energy">   -101.93811265 </i>
   </energy>
  </scstep>
  <scstep>
   <time name="dav">    4.12    4.12</time>
   <time name="total">    4.27    4.27</time>
   <energy>
    <i name="e_fr_energy">    -98.05196645 </i>
    <i name="e_wo_entrp">    -98.05460852 </i>
    <i name="e_0_energy">    -98.05284714 </i>
   </energy>
  </scstep>
  <scstep>
   <time name="dav">    5.24    5.24</time>
   <time name="total">    5.39    5.40</time>
   <energy>
    <i name="e_fr_energy">   -143.97409716 </i>
    <i name="e_wo_entrp">   -143.97435974 </i>
    <i name="e_0_energy">   -143.97418469 </i>
   </energy>
  </scstep>
  <scstep>
   <time name="dav">    5.03    5.03</time>
   <time name="total">    5.18    5.18</time>
   <energy>
    <i name="e_fr_energy">   -118.64326540 </i>
    <i name="e_wo_entrp">   -118.66258622 </i>
    <i name="e_0_energy">   -118.64970567 </i>
   </energy>
  </scstep>
  <scstep>
   <time name="dav">    4.49    4.49</time>
   <time name="total">    4.64    4.65</time>
   <energy>
    <i name="e_fr_energy">   -112.01651374 </i>
    <i name="e_wo_entrp">   -112.02033757 </i>
    <i name="e_0_energy">   -112.01778835 </i>
   </energy>
  </scstep>
  <scstep>
   <time name="dav">    5.22    5.22</time>
   <time name="total">    5.37    5.37</time>
   <energy>
    <i name="e_fr_energy">   -101.83378673 </i>
    <i name="e_wo_entrp">   -101.80983656 </i>
    <i name="e_0_energy">   -101.82580334 </i>
   </energy>
  </scstep>
  <scstep>
   <time name="dav">    4.54    4.54</time>
   <time name="total">    4.69    4.69</time>
   <energy>
    <i name="e_fr_energy">    -95.67438370 </i>
    <i name="e_wo_entrp">    -95.62288564 </i>
    <i name="e_0_energy">    -95.65721768 </i>
   </energy>
  </scstep>
  <scstep>
   <time name="dav">    4.99    5.00</time>
   <time name="total">    5.15    5.15</time>
   <energy>
    <i name="e_fr_energy">    -96.23923027 </i>
    <i name="e_wo_entrp">    -96.21848622 </i>
    <i name="e_0_energy">    -96.23231559 </i>
   </energy>
  </scstep>
  <scstep>
   <time name="dav">    4.63    4.63</time>
   <time name="total">    4.79    4.79</time>
   <energy>
    <i name="e_fr_energy">    -95.18827045 </i>
    <i name="e_wo_entrp">    -95.16917242 </i>
    <i name="e_0_energy">    -95.18190444 </i>
   </energy>
  </scstep>
  <scstep>
   <time name="dav">    4.52    4.52</time>
   <time name="total">    4.67    4.67</time>
   <energy>
    <i name="e_fr_energy">    -95.18409151 </i>
    <i name="e_wo_entrp">    -95.16043438 </i>
    <i name="e_0_energy">    -95.17620580 </i>
   </energy>
  </scstep>
  <scstep>
   <time name="dav">    3.92    3.92</time>
   <time name="total">    4.08    4.08</time>
   <energy>
    <i name="e_fr_energy">    -95.15063642 </i>
    <i name="e_wo_entrp">    -95.12918415 </i>
    <i name="e_0_energy">    -95.14348566 </i>
   </energy>
  </scstep>
  <scstep>
   <time name="dav">    4.15    4.15</time>
   <time name="total">    4.31    4.31</time>
   <energy>
    <i name="e_fr_energy">    -95.14537428 </i>
    <i name="e_wo_entrp">    -95.12720285 </i>
    <i name="e_0_energy">    -95.13931713 </i>
   </energy>
  </scstep>
  <scstep>
   <time name="dav">    4.27    4.27</time>
   <time name="total">    4.42    4.42</time>
   <energy>
    <i name="e_fr_energy">    -95.11163861 </i>
    <i name="e_wo_entrp">    -95.09014684 </i>
    <i name="e_0_energy">    -95.10447469 </i>
   </energy>
  </scstep>
  <scstep>
   <time name="dav">    4.63    4.63</time>
   <time name="total">    4.78    4.79</time>
   <energy>
    <i name="e_fr_energy">    -95.10528051 </i>
    <i name="e_wo_entrp">    -95.08240308 </i>
    <i name="e_0_energy">    -95.09765470 </i>
   </energy>
  </scstep>
  <scstep>
   <time name="dav">    5.22    5.22</time>
   <time name="total">    5.37    5.37</time>
   <energy>
    <i name="e_fr_energy">    -95.09494809 </i>
    <i name="e_wo_entrp">    -95.07189289 </i>
    <i name="e_0_energy">    -95.08726303 </i>
   </energy>
  </scstep>
  <scstep>
   <time name="dav">    4.32    4.32</time>
   <time name="total">    4.48    4.48</time>
   <energy>
    <i name="e_fr_energy">    -95.09418714 </i>
    <i name="e_wo_entrp">    -95.07145940 </i>
    <i name="e_0_energy">    -95.08661123 </i>
   </energy>
  </scstep>
  <scstep>
   <time name="dav">    4.76    4.76</time>
   <time name="total">    4.91    4.91</time>
   <energy>
    <i name="e_fr_energy">    -95.09343099 </i>
    <i name="e_wo_entrp">    -95.07057861 </i>
    <i name="e_0_energy">    -95.08581353 </i>
   </energy>
  </scstep>
  <scstep>
   <time name="dav">    4.92    4.92</time>
   <time name="total">    5.07    5.08</time>
   <energy>
    <i name="e_fr_energy">    -95.09159090 </i>
    <i name="e_wo_entrp">    -95.06843290 </i>
    <i name="e_0_energy">    -95.08387157 </i>
   </energy>
  </scstep>
  <scstep>
   <time name="dav">    5.01    5.01</time>
   <time name="total">    5.16    5.16</time>
   <energy>
    <i name="e_fr_energy">    -95.09124595 </i>
    <i name="e_wo_entrp">    -95.06800025 </i>
    <i name="e_0_energy">    -95.08349738 </i>
   </energy>
  </scstep>
  <scstep>
   <time name="dav">    4.83    4.83</time>
   <time name="total">    4.98    4.98</time>
   <energy>
    <i name="e_fr_energy">    -95.09118862 </i>
    <i name="e_wo_entrp">    -95.06785758 </i>
    <i name="e_0_energy">    -95.08341161 </i>
   </energy>
  </scstep>
  <scstep>
   <time name="dav">    3.10    3.10</time>
   <time name="total">    3.26    3.26</time>
   <energy>
    <i name="e_fr_energy">    -95.09127717 </i>
    <i name="e_wo_entrp">    -95.06794519 </i>
    <i name="e_0_energy">    -95.08349985 </i>
   </energy>
  </scstep>
  <scstep>
   <time name="dav">    3.48    3.48</time>
   <time name="total">    3.63    3.64</time>
   <energy>
    <i name="e_fr_energy">    -95.09133332 </i>
    <i name="e_wo_entrp">    -95.06788073 </i>
    <i name="e_0_energy">    -95.08351579 </i>
   </energy>
  </scstep>
  <scstep>
   <time name="dav">    2.91    2.91</time>
   <time name="total">    3.06    3.06</time>
   <energy>
    <i name="e_fr_energy">    -95.09137016 </i>
    <i name="e_wo_entrp">    -95.06794497 </i>
    <i name="e_0_energy">    -95.08356176 </i>
   </energy>
  </scstep>
  <scstep>
   <time name="dav">    3.00    3.00</time>
   <time name="total">    3.15    3.16</time>
   <energy>
    <i name="e_fr_energy">    -95.09142927 </i>
    <i name="e_wo_entrp">    -95.06800706 </i>
    <i name="e_0_energy">    -95.08362187 </i>
   </energy>
  </scstep>
  <scstep>
   <time name="dav">    2.99    2.99</time>
   <time name="total">    3.15    3.15</time>
   <energy>
    <i name="e_fr_energy">    -95.09146214 </i>
    <i name="e_wo_entrp">    -95.06803946 </i>
    <i name="e_0_energy">    -95.08365458 </i>
   </energy>
  </scstep>
  <scstep>
   <time name="dav">    2.95    2.95</time>
   <time name="total">    3.10    3.10</time>
   <energy>
    <i name="e_fr_energy">    -95.09149878 </i>
    <i name="e_wo_entrp">    -95.06806547 </i>
    <i name="e_0_energy">    -95.08368768 </i>
   </energy>
  </scstep>
  <scstep>
   <time name="dav">    3.02    3.02</time>
   <time name="total">    3.18    3.18</time>
   <energy>
    <i name="e_fr_energy">    -95.09151386 </i>
    <i name="e_wo_entrp">    -95.06809378 </i>
    <i name="e_0_energy">    -95.08370717 </i>
   </energy>
  </scstep>
  <scstep>
   <time name="dav">    2.83    2.84</time>
   <time name="total">    2.86    2.86</time>
   <energy>
    <i name="alphaZ">    305.89839443 </i>
    <i name="ewald">  98572.80899501 </i>
    <i name="hartreedc">-110506.14595180 </i>
    <i name="XCdc">     43.22060957 </i>
    <i name="pawpsdc">  14210.88566909 </i>
    <i name="pawaedc"> -13796.82946984 </i>
    <i name="eentropy">     -0.02341945 </i>
    <i name="bandstr">   -631.06869423 </i>
    <i name="atom">  11706.16234457 </i>
    <i name="e_fr_energy">    -95.09152266 </i>
    <i name="e_wo_entrp">    -95.06810321 </i>
    <i name="e_0_energy">    -95.08371617 </i>
   </energy>
  </scstep>
  <dipole>
   <v name="dipole">      0.00000000       0.00000000      -0.09251699 </v>
   <i name="Tr[quadrupol]">   -950.11725641 </i>
   <i name="Echarged">      0.00000000 </i>
   <i name="Edipol_quadrupol">      0.00000000 </i>
   <i name="Eion">      0.00000000 </i>
  </dipole>
  <structure>
   <crystal>
    <varray name="basis" >
     <v>       5.55785930       0.00000000       0.00000000 </v>
     <v>       2.77892965       4.81324734       0.00000000 </v>
     <v>       0.00000000       0.00000000      30.80695967 </v>
    </varray>
    <i name="volume">    824.12780743 </i>
    <varray name="rec_basis" >
     <v>       0.17992539      -0.10387997       0.00000000 </v>
     <v>       0.00000000       0.20775994       0.00000000 </v>
     <v>       0.00000000       0.00000000       0.03246020 </v>
    </varray>
   </crystal>
   <varray name="positions" >
    <v>       0.00000000       0.00000000       0.38952237 </v>
    <v>       0.50000000       0.00000000       0.38952237 </v>
    <v>       0.00000000       0.50000000       0.38952237 </v>
    <v>       0.50000000       0.50000000       0.38952237 </v>
    <v>       0.16652883       0.16652883       0.46542487 </v>
    <v>       0.66694234       0.16652883       0.46542487 </v>
    <v>       0.16652883       0.66694234       0.46542487 </v>
    <v>       0.66666667       0.66666667       0.46426737 </v>
    <v>       0.83396869       0.33206261       0.54005199 </v>
    <v>       0.33333333       0.33333333       0.53994492 </v>
    <v>       0.83396869       0.83396869       0.54005199 </v>
    <v>       0.33206261       0.83396869       0.54005199 </v>
    <v>       0.50048728       0.99902544       0.61498914 </v>
    <v>       0.99902544       0.50048728       0.61498914 </v>
    <v>       0.50048728       0.50048728       0.61498914 </v>
    <v>       0.00000000       0.00000000       0.61904352 </v>
    <v>       0.00000000       0.00000000       0.66953436 </v>
   </varray>
  </structure>
  <varray name="forces" >
   <v>       0.00000000       0.00000000       1.19886001 </v>
   <v>      -0.00000000       0.12740341      -0.14746322 </v>
   <v>       0.11033459      -0.06370171      -0.14746322 </v>
   <v>      -0.11033459      -0.06370171      -0.14746322 </v>
   <v>      -0.11481332      -0.06628750      -0.28424945 </v>
   <v>       0.11481332      -0.06628750      -0.28424945 </v>
   <v>      -0.00000000       0.13257500      -0.28424945 </v>
   <v>       0.00000000       0.00000000       0.08674659 </v>
   <v>       0.00000000       0.04491856       0.02148939 </v>
   <v>       0.00000000       0.00000000      -0.11831954 </v>
   <v>      -0.03890061      -0.02245928       0.02148939 </v>
   <v>       0.03890061      -0.02245928       0.02148939 </v>
   <v>       0.00000000       0.07252884      -0.18766078 </v>
   <v>       0.06281182      -0.03626442      -0.18766078 </v>
   <v>      -0.06281182      -0.03626442      -0.18766078 </v>
   <v>       0.00000000       0.00000000       0.25345883 </v>
   <v>       0.00000000       0.00000000       0.37290626 </v>
  </varray>
  <varray name="stress" >
   <v>     -21.23466381       0.00000000       0.00000000 </v>
   <v>       0.00000000     -21.23466381      -0.00000000 </v>
   <v>       0.00000000       0.00000000      -4.38799064 </v>
  </varray>
  <energy>
   <i name="e_fr_energy">    -95.09058296 </i>
   <i name="e_wo_entrp">    -95.08277648 </i>
   <i name="e_0_energy">     -0.02341945 </i>
  </energy>
  <time name="totalsc">  145.45  145.52</time>
  <eigenvalues>
   <array>
    <dimension dim="1">band</dimension>
    <dimension dim="2">kpoint</dimension>
    <dimension dim="3">spin</dimension>
    <field>eigene</field>
    <field>occ</field>
    <set>
     <set comment="spin 1">
      <set comment="kpoint 1">
       <r>  -10.0328    1.0000 </r>
       <r>   -8.8318    1.0000 </r>
       <r>   -7.8049    1.0000 </r>
       <r>   -7.6259    1.0000 </r>
       <r>   -7.5207    1.0000 </r>
       <r>   -7.2918    1.0000 </r>
       <r>   -7.2758    1.0000 </r>
       <r>   -7.1521    1.0000 </r>
       <r>   -7.1384    1.0000 </r>
       <r>   -7.1261    1.0000 </r>
       <r>   -7.0618    1.0000 </r>
       <r>   -6.8053    1.0000 </r>
       <r>   -6.7925    1.0000 </r>
       <r>   -6.6659    1.0000 </r>
       <r>   -6.6654    1.0000 </r>
       <r>   -6.4738    1.0000 </r>
       <r>   -6.4451    1.0000 </r>
       <r>   -6.3741    1.0000 </r>
       <r>   -6.3677    1.0000 </r>
       <r>   -6.3537    1.0000 </r>
       <r>   -5.8304    1.0000 </r>
       <r>   -5.8291    1.0000 </r>
       <r>   -5.4156    1.0000 </r>
       <r>   -4.9914    1.0000 </r>
       <r>   -4.9876    1.0000 </r>
       <r>   -4.5537    1.0000 </r>
       <r>   -4.5130    1.0000 </r>
       <r>   -4.5120    1.0000 </r>
       <r>   -4.4726    1.0000 </r>
       <r>   -4.4316    1.0000 </r>
       <r>   -4.2188    1.0000 </r>
       <r>   -4.1933    1.0000 </r>
       <r>   -4.1685    1.0000 </r>
       <r>   -4.0505    1.0000 </r>
       <r>   -4.0466    1.0000 </r>
       <r>   -3.9779    1.0000 </r>
       <r>   -3.9777    1.0000 </r>
       <r>   -3.8524    1.0000 </r>
       <r>   -3.8344    1.0000 </r>
       <r>   -3.7836    1.0000 </r>
       <r>   -3.5501    1.0000 </r>
       <r>   -3.5048    1.0000 </r>
       <r>   -3.3804    1.0000 </r>
       <r>   -3.3438    1.0000 </r>
       <r>   -3.3304    1.0000 </r>
       <r>   -3.1668    1.0000 </r>
       <r>   -3.1360    1.0000 </r>
       <r>   -2.8341    1.0000 </r>
       <r>   -2.7941    1.0000 </r>
       <r>   -2.6588    1.0000 </r>
       <r>   -2.5934    1.0000 </r>
       <r>   -2.4698    1.0000 </r>
       <r>   -2.2356    1.0000 </r>
       <r>   -2.2307    1.0000 </r>
       <r>   -2.0169    1.0000 </r>
       <r>   -1.9954    1.0000 </r>
       <r>   -1.7148    1.0000 </r>
       <r>   -1.6894    1.0000 </r>
       <r>   -1.5819    1.0000 </r>
       <r>   -1.5814    1.0000 </r>
       <r>   -1.4779    1.0000 </r>
       <r>   -1.4757    1.0000 </r>
       <r>   -1.0867    1.0048 </r>
       <r>   -1.0689    1.0065 </r>
       <r>   -1.0494    1.0090 </r>
       <r>   -1.0314    1.0118 </r>
       <r>   -0.9757    1.0233 </r>
       <r>   -0.8830    1.0339 </r>
       <r>   -0.8628    1.0280 </r>
       <r>   -0.8062    0.9753 </r>
       <r>   -0.7319    0.7944 </r>
       <r>   -0.7280    0.7812 </r>
       <r>   -0.6455    0.4526 </r>
       <r>   -0.5882    0.2281 </r>
       <r>   -0.5782    0.1943 </r>
       <r>   -0.5528    0.1193 </r>
       <r>   -0.5067    0.0237 </r>
       <r>   -0.3929   -0.0343 </r>
       <r>   -0.3714   -0.0307 </r>
       <r>   -0.3405   -0.0239 </r>
       <r>   -0.1792   -0.0019 </r>
       <r>   -0.1450   -0.0009 </r>
       <r>   -0.0515   -0.0001 </r>
       <r>    0.0180   -0.0000 </r>
       <r>    0.1364   -0.0000 </r>
       <r>    0.2521   -0.0000 </r>
       <r>    0.5007   -0.0000 </r>
       <r>    0.5195   -0.0000 </r>
       <r>    1.3180   -0.0000 </r>
       <r>    1.4396   -0.0000 </r>
       <r>    1.6844   -0.0000 </r>
       <r>    1.7447   -0.0000 </r>
       <r>    1.8483   -0.0000 </r>
       <r>    1.8995   -0.0000 </r>
       <r>    2.2561   -0.0000 </r>
       <r>    2.7007   -0.0000 </r>
      </set>
      <set comment="kpoint 2">
       <r>   -9.8303    1.0000 </r>
       <r>   -8.6370    1.0000 </r>
       <r>   -7.6309    1.0000 </r>
       <r>   -7.5357    1.0000 </r>
       <r>   -7.3552    1.0000 </r>
       <r>   -7.2508    1.0000 </r>
       <r>   -7.1513    1.0000 </r>
       <r>   -7.0735    1.0000 </r>
       <r>   -7.0254    1.0000 </r>
       <r>   -6.9630    1.0000 </r>
       <r>   -6.9522    1.0000 </r>
       <r>   -6.7208    1.0000 </r>
       <r>   -6.6462    1.0000 </r>
       <r>   -6.5666    1.0000 </r>
       <r>   -6.5555    1.0000 </r>
       <r>   -6.3919    1.0000 </r>
       <r>   -6.3406    1.0000 </r>
       <r>   -6.2666    1.0000 </r>
       <r>   -6.2286    1.0000 </r>
       <r>   -6.1655    1.0000 </r>
       <r>   -5.7653    1.0000 </r>
       <r>   -5.7610    1.0000 </r>
       <r>   -5.3622    1.0000 </r>
       <r>   -4.9898    1.0000 </r>
       <r>   -4.9608    1.0000 </r>
       <r>   -4.6227    1.0000 </r>
       <r>   -4.5419    1.0000 </r>
       <r>   -4.4771    1.0000 </r>
       <r>   -4.4569    1.0000 </r>
       <r>   -4.4288    1.0000 </r>
       <r>   -4.3433    1.0000 </r>
       <r>   -4.3176    1.0000 </r>
       <r>   -4.0794    1.0000 </r>
       <r>   -4.0455    1.0000 </r>
       <r>   -4.0034    1.0000 </r>
       <r>   -3.9564    1.0000 </r>
       <r>   -3.8973    1.0000 </r>
       <r>   -3.8557    1.0000 </r>
       <r>   -3.8236    1.0000 </r>
       <r>   -3.7379    1.0000 </r>
       <r>   -3.6630    1.0000 </r>
       <r>   -3.5382    1.0000 </r>
       <r>   -3.4747    1.0000 </r>
       <r>   -3.4424    1.0000 </r>
       <r>   -3.3988    1.0000 </r>
       <r>   -3.3480    1.0000 </r>
       <r>   -3.2638    1.0000 </r>
       <r>   -3.0448    1.0000 </r>
       <r>   -2.9330    1.0000 </r>
       <r>   -2.8127    1.0000 </r>
       <r>   -2.7101    1.0000 </r>
       <r>   -2.5572    1.0000 </r>
       <r>   -2.3326    1.0000 </r>
       <r>   -2.2889    1.0000 </r>
       <r>   -2.0990    1.0000 </r>
       <r>   -2.0614    1.0000 </r>
       <r>   -1.9544    1.0000 </r>
       <r>   -1.8400    1.0000 </r>
       <r>   -1.7460    1.0000 </r>
       <r>   -1.7077    1.0000 </r>
       <r>   -1.6709    1.0000 </r>
       <r>   -1.6434    1.0000 </r>
       <r>   -1.5361    1.0000 </r>
       <r>   -1.4843    1.0000 </r>
       <r>   -1.4278    1.0000 </r>
       <r>   -1.3344    1.0000 </r>
       <r>   -1.1648    1.0010 </r>
       <r>   -1.0730    1.0061 </r>
       <r>   -1.0043    1.0169 </r>
       <r>   -0.9725    1.0240 </r>
       <r>   -0.9415    1.0309 </r>
       <r>   -0.8962    1.0353 </r>
       <r>   -0.8627    1.0279 </r>
       <r>   -0.7884    0.9444 </r>
       <r>   -0.7359    0.8075 </r>
       <r>   -0.7058    0.7006 </r>
       <r>   -0.6532    0.4850 </r>
       <r>   -0.6198    0.3465 </r>
       <r>   -0.5778    0.1929 </r>
       <r>   -0.5512    0.1151 </r>
       <r>   -0.4789   -0.0095 </r>
       <r>   -0.3964   -0.0346 </r>
       <r>   -0.3070   -0.0165 </r>
       <r>   -0.2300   -0.0051 </r>
       <r>   -0.0337   -0.0000 </r>
       <r>    0.2969   -0.0000 </r>
       <r>    0.3818   -0.0000 </r>
       <r>    0.5455   -0.0000 </r>
       <r>    0.9366   -0.0000 </r>
       <r>    1.1182   -0.0000 </r>
       <r>    1.3985   -0.0000 </r>
       <r>    1.6450   -0.0000 </r>
       <r>    2.2436   -0.0000 </r>
       <r>    2.4191   -0.0000 </r>
       <r>    2.6791   -0.0000 </r>
       <r>    3.1497   -0.0000 </r>
      </set>
      <set comment="kpoint 3">
       <r>   -9.3811    1.0000 </r>
       <r>   -8.2277    1.0000 </r>
       <r>   -7.5408    1.0000 </r>
       <r>   -7.2990    1.0000 </r>
       <r>   -7.1488    1.0000 </r>
       <r>   -6.9661    1.0000 </r>
       <r>   -6.9416    1.0000 </r>
       <r>   -6.8888    1.0000 </r>
       <r>   -6.7389    1.0000 </r>
       <r>   -6.6933    1.0000 </r>
       <r>   -6.6489    1.0000 </r>
       <r>   -6.5660    1.0000 </r>
       <r>   -6.3838    1.0000 </r>
       <r>   -6.3369    1.0000 </r>
       <r>   -6.2438    1.0000 </r>
       <r>   -6.2299    1.0000 </r>
       <r>   -6.0948    1.0000 </r>
       <r>   -5.9979    1.0000 </r>
       <r>   -5.9337    1.0000 </r>
       <r>   -5.8282    1.0000 </r>
       <r>   -5.6122    1.0000 </r>
       <r>   -5.5650    1.0000 </r>
       <r>   -5.2579    1.0000 </r>
       <r>   -5.0364    1.0000 </r>
       <r>   -4.9362    1.0000 </r>
       <r>   -4.8297    1.0000 </r>
       <r>   -4.7268    1.0000 </r>
       <r>   -4.6505    1.0000 </r>
       <r>   -4.5672    1.0000 </r>
       <r>   -4.4262    1.0000 </r>
       <r>   -4.3639    1.0000 </r>
       <r>   -4.3003    1.0000 </r>
       <r>   -4.2173    1.0000 </r>
       <r>   -4.1187    1.0000 </r>
       <r>   -4.0457    1.0000 </r>
       <r>   -3.9419    1.0000 </r>
       <r>   -3.8878    1.0000 </r>
       <r>   -3.8244    1.0000 </r>
       <r>   -3.7936    1.0000 </r>
       <r>   -3.7311    1.0000 </r>
       <r>   -3.7098    1.0000 </r>
       <r>   -3.6560    1.0000 </r>
       <r>   -3.6395    1.0000 </r>
       <r>   -3.6289    1.0000 </r>
       <r>   -3.5577    1.0000 </r>
       <r>   -3.5079    1.0000 </r>
       <r>   -3.4134    1.0000 </r>
       <r>   -3.2256    1.0000 </r>
       <r>   -3.0766    1.0000 </r>
       <r>   -2.9888    1.0000 </r>
       <r>   -2.8867    1.0000 </r>
       <r>   -2.8006    1.0000 </r>
       <r>   -2.6835    1.0000 </r>
       <r>   -2.5924    1.0000 </r>
       <r>   -2.5659    1.0000 </r>
       <r>   -2.4513    1.0000 </r>
       <r>   -2.4002    1.0000 </r>
       <r>   -2.3555    1.0000 </r>
       <r>   -2.2979    1.0000 </r>
       <r>   -2.2046    1.0000 </r>
       <r>   -2.1738    1.0000 </r>
       <r>   -2.0949    1.0000 </r>
       <r>   -1.9189    1.0000 </r>
       <r>   -1.8587    1.0000 </r>
       <r>   -1.8061    1.0000 </r>
       <r>   -1.6759    1.0000 </r>
       <r>   -1.5766    1.0000 </r>
       <r>   -1.4498    1.0000 </r>
       <r>   -1.4188    1.0000 </r>
       <r>   -1.3735    1.0000 </r>
       <r>   -1.3518    1.0000 </r>
       <r>   -1.2954    1.0000 </r>
       <r>   -1.1797    1.0007 </r>
       <r>   -1.1182    1.0026 </r>
       <r>   -1.0623    1.0073 </r>
       <r>   -0.9753    1.0234 </r>
       <r>   -0.9269    1.0334 </r>
       <r>   -0.8514    1.0221 </r>
       <r>   -0.7576    0.8725 </r>
       <r>   -0.7064    0.7029 </r>
       <r>   -0.6682    0.5484 </r>
       <r>   -0.5638    0.1498 </r>
       <r>   -0.4598   -0.0235 </r>
       <r>   -0.4071   -0.0354 </r>
       <r>   -0.3571   -0.0277 </r>
       <r>   -0.1449   -0.0009 </r>
       <r>    0.3970   -0.0000 </r>
       <r>    0.6544   -0.0000 </r>
       <r>    1.0144   -0.0000 </r>
       <r>    1.3828   -0.0000 </r>
       <r>    1.8411   -0.0000 </r>
       <r>    1.9953   -0.0000 </r>
       <r>    2.3705   -0.0000 </r>
       <r>    2.4826   -0.0000 </r>
       <r>    3.2218   -0.0000 </r>
       <r>    3.5419   -0.0000 </r>
      </set>
      <set comment="kpoint 4">
       <r>   -8.7537    1.0000 </r>
       <r>   -7.8743    1.0000 </r>
       <r>   -7.6579    1.0000 </r>
       <r>   -7.2978    1.0000 </r>
       <r>   -6.9674    1.0000 </r>
       <r>   -6.6831    1.0000 </r>
       <r>   -6.6095    1.0000 </r>
       <r>   -6.4710    1.0000 </r>
       <r>   -6.4380    1.0000 </r>
       <r>   -6.3957    1.0000 </r>
       <r>   -6.3750    1.0000 </r>
       <r>   -6.2553    1.0000 </r>
       <r>   -6.0921    1.0000 </r>
       <r>   -6.0593    1.0000 </r>
       <r>   -5.9304    1.0000 </r>
       <r>   -5.8646    1.0000 </r>
       <r>   -5.8027    1.0000 </r>
       <r>   -5.7141    1.0000 </r>
       <r>   -5.6476    1.0000 </r>
       <r>   -5.5022    1.0000 </r>
       <r>   -5.3609    1.0000 </r>
       <r>   -5.2928    1.0000 </r>
       <r>   -5.2349    1.0000 </r>
       <r>   -5.0754    1.0000 </r>
       <r>   -5.0554    1.0000 </r>
       <r>   -4.9612    1.0000 </r>
       <r>   -4.8671    1.0000 </r>
       <r>   -4.7877    1.0000 </r>
       <r>   -4.7338    1.0000 </r>
       <r>   -4.6251    1.0000 </r>
       <r>   -4.5472    1.0000 </r>
       <r>   -4.4497    1.0000 </r>
       <r>   -4.4334    1.0000 </r>
       <r>   -4.3227    1.0000 </r>
       <r>   -4.2705    1.0000 </r>
       <r>   -4.1739    1.0000 </r>
       <r>   -4.1349    1.0000 </r>
       <r>   -4.0508    1.0000 </r>
       <r>   -3.9635    1.0000 </r>
       <r>   -3.8610    1.0000 </r>
       <r>   -3.8071    1.0000 </r>
       <r>   -3.6584    1.0000 </r>
       <r>   -3.6376    1.0000 </r>
       <r>   -3.5922    1.0000 </r>
       <r>   -3.5183    1.0000 </r>
       <r>   -3.4688    1.0000 </r>
       <r>   -3.4336    1.0000 </r>
       <r>   -3.4021    1.0000 </r>
       <r>   -3.3337    1.0000 </r>
       <r>   -3.2207    1.0000 </r>
       <r>   -3.1733    1.0000 </r>
       <r>   -3.1261    1.0000 </r>
       <r>   -3.0296    1.0000 </r>
       <r>   -3.0192    1.0000 </r>
       <r>   -2.9077    1.0000 </r>
       <r>   -2.8635    1.0000 </r>
       <r>   -2.7683    1.0000 </r>
       <r>   -2.6944    1.0000 </r>
       <r>   -2.6210    1.0000 </r>
       <r>   -2.5665    1.0000 </r>
       <r>   -2.3745    1.0000 </r>
       <r>   -2.2840    1.0000 </r>
       <r>   -2.2352    1.0000 </r>
       <r>   -2.1674    1.0000 </r>
       <r>   -2.1052    1.0000 </r>
       <r>   -2.0138    1.0000 </r>
       <r>   -1.9473    1.0000 </r>
       <r>   -1.9029    1.0000 </r>
       <r>   -1.8198    1.0000 </r>
       <r>   -1.7571    1.0000 </r>
       <r>   -1.6785    1.0000 </r>
       <r>   -1.6531    1.0000 </r>
       <r>   -1.5351    1.0000 </r>
       <r>   -1.3795    1.0000 </r>
       <r>   -1.2826    1.0000 </r>
       <r>   -1.1473    1.0014 </r>
       <r>   -1.0546    1.0083 </r>
       <r>   -0.9824    1.0218 </r>
       <r>   -0.8612    1.0273 </r>
       <r>   -0.7409    0.8235 </r>
       <r>   -0.6874    0.6280 </r>
       <r>   -0.6404    0.4309 </r>
       <r>   -0.5271    0.0594 </r>
       <r>   -0.3918   -0.0341 </r>
       <r>   -0.3663   -0.0297 </r>
       <r>   -0.2541   -0.0077 </r>
       <r>    0.4232   -0.0000 </r>
       <r>    0.8111   -0.0000 </r>
       <r>    1.1783   -0.0000 </r>
       <r>    1.5821   -0.0000 </r>
       <r>    1.9361   -0.0000 </r>
       <r>    2.1442   -0.0000 </r>
       <r>    2.5279   -0.0000 </r>
       <r>    2.6055   -0.0000 </r>
       <r>    3.5066   -0.0000 </r>
       <r>    3.8299   -0.0000 </r>
      </set>
      <set comment="kpoint 5">
       <r>   -8.4208    1.0000 </r>
       <r>   -8.0784    1.0000 </r>
       <r>   -7.5988    1.0000 </r>
       <r>   -7.2114    1.0000 </r>
       <r>   -7.0251    1.0000 </r>
       <r>   -6.5775    1.0000 </r>
       <r>   -6.5268    1.0000 </r>
       <r>   -6.3973    1.0000 </r>
       <r>   -6.3438    1.0000 </r>
       <r>   -6.2865    1.0000 </r>
       <r>   -6.2024    1.0000 </r>
       <r>   -6.1476    1.0000 </r>
       <r>   -6.0305    1.0000 </r>
       <r>   -5.9822    1.0000 </r>
       <r>   -5.8720    1.0000 </r>
       <r>   -5.7160    1.0000 </r>
       <r>   -5.6894    1.0000 </r>
       <r>   -5.5610    1.0000 </r>
       <r>   -5.5083    1.0000 </r>
       <r>   -5.4652    1.0000 </r>
       <r>   -5.3669    1.0000 </r>
       <r>   -5.3118    1.0000 </r>
       <r>   -5.2146    1.0000 </r>
       <r>   -5.0933    1.0000 </r>
       <r>   -5.0610    1.0000 </r>
       <r>   -4.9512    1.0000 </r>
       <r>   -4.8949    1.0000 </r>
       <r>   -4.8098    1.0000 </r>
       <r>   -4.7872    1.0000 </r>
       <r>   -4.6984    1.0000 </r>
       <r>   -4.6828    1.0000 </r>
       <r>   -4.5795    1.0000 </r>
       <r>   -4.4577    1.0000 </r>
       <r>   -4.4079    1.0000 </r>
       <r>   -4.3530    1.0000 </r>
       <r>   -4.2093    1.0000 </r>
       <r>   -4.1486    1.0000 </r>
       <r>   -4.0749    1.0000 </r>
       <r>   -4.0232    1.0000 </r>
       <r>   -3.9259    1.0000 </r>
       <r>   -3.8524    1.0000 </r>
       <r>   -3.7678    1.0000 </r>
       <r>   -3.7001    1.0000 </r>
       <r>   -3.6078    1.0000 </r>
       <r>   -3.5392    1.0000 </r>
       <r>   -3.5107    1.0000 </r>
       <r>   -3.4883    1.0000 </r>
       <r>   -3.4661    1.0000 </r>
       <r>   -3.4441    1.0000 </r>
       <r>   -3.3897    1.0000 </r>
       <r>   -3.3071    1.0000 </r>
       <r>   -3.2120    1.0000 </r>
       <r>   -3.1575    1.0000 </r>
       <r>   -2.9372    1.0000 </r>
       <r>   -2.8967    1.0000 </r>
       <r>   -2.8202    1.0000 </r>
       <r>   -2.7746    1.0000 </r>
       <r>   -2.6668    1.0000 </r>
       <r>   -2.6279    1.0000 </r>
       <r>   -2.5478    1.0000 </r>
       <r>   -2.4807    1.0000 </r>
       <r>   -2.3843    1.0000 </r>
       <r>   -2.3385    1.0000 </r>
       <r>   -2.2243    1.0000 </r>
       <r>   -2.1534    1.0000 </r>
       <r>   -2.1196    1.0000 </r>
       <r>   -2.0306    1.0000 </r>
       <r>   -1.9984    1.0000 </r>
       <r>   -1.8955    1.0000 </r>
       <r>   -1.8590    1.0000 </r>
       <r>   -1.7501    1.0000 </r>
       <r>   -1.7162    1.0000 </r>
       <r>   -1.6743    1.0000 </r>
       <r>   -1.4993    1.0000 </r>
       <r>   -1.3287    1.0000 </r>
       <r>   -1.2896    1.0000 </r>
       <r>   -1.0648    1.0070 </r>
       <r>   -0.9912    1.0198 </r>
       <r>   -0.7827    0.9328 </r>
       <r>   -0.7450    0.8361 </r>
       <r>   -0.6870    0.6263 </r>
       <r>   -0.6266    0.3742 </r>
       <r>   -0.5213    0.0484 </r>
       <r>   -0.3910   -0.0340 </r>
       <r>   -0.3654   -0.0295 </r>
       <r>   -0.3381   -0.0234 </r>
       <r>    0.4678   -0.0000 </r>
       <r>    0.8519   -0.0000 </r>
       <r>    1.2497   -0.0000 </r>
       <r>    1.5689   -0.0000 </r>
       <r>    1.9397   -0.0000 </r>
       <r>    2.0880   -0.0000 </r>
       <r>    2.5860   -0.0000 </r>
       <r>    2.7090   -0.0000 </r>
       <r>    3.7120   -0.0000 </r>
       <r>    3.9074   -0.0000 </r>
      </set>
      <set comment="kpoint 6">
       <r>   -9.0828    1.0000 </r>
       <r>   -7.9929    1.0000 </r>
       <r>   -7.5837    1.0000 </r>
       <r>   -7.3216    1.0000 </r>
       <r>   -6.9810    1.0000 </r>
       <r>   -6.8618    1.0000 </r>
       <r>   -6.7466    1.0000 </r>
       <r>   -6.6808    1.0000 </r>
       <r>   -6.5782    1.0000 </r>
       <r>   -6.5399    1.0000 </r>
       <r>   -6.5171    1.0000 </r>
       <r>   -6.4196    1.0000 </r>
       <r>   -6.2267    1.0000 </r>
       <r>   -6.1936    1.0000 </r>
       <r>   -6.0935    1.0000 </r>
       <r>   -6.0259    1.0000 </r>
       <r>   -5.9660    1.0000 </r>
       <r>   -5.8188    1.0000 </r>
       <r>   -5.8112    1.0000 </r>
       <r>   -5.6518    1.0000 </r>
       <r>   -5.4930    1.0000 </r>
       <r>   -5.3985    1.0000 </r>
       <r>   -5.1998    1.0000 </r>
       <r>   -5.0737    1.0000 </r>
       <r>   -5.0060    1.0000 </r>
       <r>   -4.9447    1.0000 </r>
       <r>   -4.7903    1.0000 </r>
       <r>   -4.7384    1.0000 </r>
       <r>   -4.6636    1.0000 </r>
       <r>   -4.4906    1.0000 </r>
       <r>   -4.4260    1.0000 </r>
       <r>   -4.3748    1.0000 </r>
       <r>   -4.2694    1.0000 </r>
       <r>   -4.1955    1.0000 </r>
       <r>   -4.1432    1.0000 </r>
       <r>   -4.0571    1.0000 </r>
       <r>   -4.0202    1.0000 </r>
       <r>   -3.9873    1.0000 </r>
       <r>   -3.8855    1.0000 </r>
       <r>   -3.8388    1.0000 </r>
       <r>   -3.7059    1.0000 </r>
       <r>   -3.6700    1.0000 </r>
       <r>   -3.6344    1.0000 </r>
       <r>   -3.5864    1.0000 </r>
       <r>   -3.5354    1.0000 </r>
       <r>   -3.4270    1.0000 </r>
       <r>   -3.4069    1.0000 </r>
       <r>   -3.3478    1.0000 </r>
       <r>   -3.1923    1.0000 </r>
       <r>   -3.0572    1.0000 </r>
       <r>   -2.9882    1.0000 </r>
       <r>   -2.9723    1.0000 </r>
       <r>   -2.8887    1.0000 </r>
       <r>   -2.8396    1.0000 </r>
       <r>   -2.7599    1.0000 </r>
       <r>   -2.7320    1.0000 </r>
       <r>   -2.6508    1.0000 </r>
       <r>   -2.6019    1.0000 </r>
       <r>   -2.5715    1.0000 </r>
       <r>   -2.4428    1.0000 </r>
       <r>   -2.3907    1.0000 </r>
       <r>   -2.1883    1.0000 </r>
       <r>   -2.0609    1.0000 </r>
       <r>   -1.9941    1.0000 </r>
       <r>   -1.9533    1.0000 </r>
       <r>   -1.8579    1.0000 </r>
       <r>   -1.8128    1.0000 </r>
       <r>   -1.7367    1.0000 </r>
       <r>   -1.6711    1.0000 </r>
       <r>   -1.5740    1.0000 </r>
       <r>   -1.5250    1.0000 </r>
       <r>   -1.4689    1.0000 </r>
       <r>   -1.3749    1.0000 </r>
       <r>   -1.2407    1.0001 </r>
       <r>   -1.1805    1.0007 </r>
       <r>   -1.0568    1.0080 </r>
       <r>   -0.9628    1.0263 </r>
       <r>   -0.9442    1.0303 </r>
       <r>   -0.8725    1.0315 </r>
       <r>   -0.7308    0.7906 </r>
       <r>   -0.6908    0.6417 </r>
       <r>   -0.6472    0.4597 </r>
       <r>   -0.5243    0.0541 </r>
       <r>   -0.3977   -0.0348 </r>
       <r>   -0.3676   -0.0300 </r>
       <r>   -0.1575   -0.0012 </r>
       <r>    0.3646   -0.0000 </r>
       <r>    0.7421   -0.0000 </r>
       <r>    1.0930   -0.0000 </r>
       <r>    1.5328   -0.0000 </r>
       <r>    1.9098   -0.0000 </r>
       <r>    2.2066   -0.0000 </r>
       <r>    2.3669   -0.0000 </r>
       <r>    2.5157   -0.0000 </r>
       <r>    3.3318   -0.0000 </r>
       <r>    3.7198   -0.0000 </r>
      </set>
      <set comment="kpoint 7">
       <r>   -9.6337    1.0000 </r>
       <r>   -8.4528    1.0000 </r>
       <r>   -7.5584    1.0000 </r>
       <r>   -7.3985    1.0000 </r>
       <r>   -7.2446    1.0000 </r>
       <r>   -7.1671    1.0000 </r>
       <r>   -7.0500    1.0000 </r>
       <r>   -7.0057    1.0000 </r>
       <r>   -6.8976    1.0000 </r>
       <r>   -6.8455    1.0000 </r>
       <r>   -6.8068    1.0000 </r>
       <r>   -6.6532    1.0000 </r>
       <r>   -6.5240    1.0000 </r>
       <r>   -6.4669    1.0000 </r>
       <r>   -6.4273    1.0000 </r>
       <r>   -6.3273    1.0000 </r>
       <r>   -6.2190    1.0000 </r>
       <r>   -6.1600    1.0000 </r>
       <r>   -6.0891    1.0000 </r>
       <r>   -6.0046    1.0000 </r>
       <r>   -5.6989    1.0000 </r>
       <r>   -5.6878    1.0000 </r>
       <r>   -5.3141    1.0000 </r>
       <r>   -5.0038    1.0000 </r>
       <r>   -4.9433    1.0000 </r>
       <r>   -4.6923    1.0000 </r>
       <r>   -4.6390    1.0000 </r>
       <r>   -4.5486    1.0000 </r>
       <r>   -4.4686    1.0000 </r>
       <r>   -4.4327    1.0000 </r>
       <r>   -4.3847    1.0000 </r>
       <r>   -4.2903    1.0000 </r>
       <r>   -4.1163    1.0000 </r>
       <r>   -4.0966    1.0000 </r>
       <r>   -3.9933    1.0000 </r>
       <r>   -3.8961    1.0000 </r>
       <r>   -3.8657    1.0000 </r>
       <r>   -3.7981    1.0000 </r>
       <r>   -3.7831    1.0000 </r>
       <r>   -3.7302    1.0000 </r>
       <r>   -3.6886    1.0000 </r>
       <r>   -3.6464    1.0000 </r>
       <r>   -3.5978    1.0000 </r>
       <r>   -3.5493    1.0000 </r>
       <r>   -3.5170    1.0000 </r>
       <r>   -3.3985    1.0000 </r>
       <r>   -3.2579    1.0000 </r>
       <r>   -3.2209    1.0000 </r>
       <r>   -3.0259    1.0000 </r>
       <r>   -2.9654    1.0000 </r>
       <r>   -2.7760    1.0000 </r>
       <r>   -2.5950    1.0000 </r>
       <r>   -2.4364    1.0000 </r>
       <r>   -2.3989    1.0000 </r>
       <r>   -2.3364    1.0000 </r>
       <r>   -2.2797    1.0000 </r>
       <r>   -2.1633    1.0000 </r>
       <r>   -2.0264    1.0000 </r>
       <r>   -1.9957    1.0000 </r>
       <r>   -1.9405    1.0000 </r>
       <r>   -1.8913    1.0000 </r>
       <r>   -1.8410    1.0000 </r>
       <r>   -1.7231    1.0000 </r>
       <r>   -1.6897    1.0000 </r>
       <r>   -1.6416    1.0000 </r>
       <r>   -1.5562    1.0000 </r>
       <r>   -1.3267    1.0000 </r>
       <r>   -1.2341    1.0002 </r>
       <r>   -1.2004    1.0004 </r>
       <r>   -1.1640    1.0010 </r>
       <r>   -1.1272    1.0022 </r>
       <r>   -1.1044    1.0034 </r>
       <r>   -1.0055    1.0167 </r>
       <r>   -0.9466    1.0298 </r>
       <r>   -0.8825    1.0338 </r>
       <r>   -0.8651    1.0289 </r>
       <r>   -0.8230    0.9976 </r>
       <r>   -0.7300    0.7880 </r>
       <r>   -0.6933    0.6519 </r>
       <r>   -0.6444    0.4479 </r>
       <r>   -0.5269    0.0592 </r>
       <r>   -0.4507   -0.0280 </r>
       <r>   -0.4277   -0.0344 </r>
       <r>   -0.3456   -0.0251 </r>
       <r>   -0.2600   -0.0084 </r>
       <r>   -0.1267   -0.0006 </r>
       <r>    0.4963   -0.0000 </r>
       <r>    0.6006   -0.0000 </r>
       <r>    0.9624   -0.0000 </r>
       <r>    1.1373   -0.0000 </r>
       <r>    1.6768   -0.0000 </r>
       <r>    1.7965   -0.0000 </r>
       <r>    2.2891   -0.0000 </r>
       <r>    2.5012   -0.0000 </r>
       <r>    3.0222   -0.0000 </r>
       <r>    3.4921   -0.0000 </r>
      </set>
      <set comment="kpoint 8">
       <r>   -9.9647    1.0000 </r>
       <r>   -8.7658    1.0000 </r>
       <r>   -7.7411    1.0000 </r>
       <r>   -7.5927    1.0000 </r>
       <r>   -7.4702    1.0000 </r>
       <r>   -7.2759    1.0000 </r>
       <r>   -7.2312    1.0000 </r>
       <r>   -7.1212    1.0000 </r>
       <r>   -7.1059    1.0000 </r>
       <r>   -7.0659    1.0000 </r>
       <r>   -7.0306    1.0000 </r>
       <r>   -6.7752    1.0000 </r>
       <r>   -6.7408    1.0000 </r>
       <r>   -6.6329    1.0000 </r>
       <r>   -6.6305    1.0000 </r>
       <r>   -6.4322    1.0000 </r>
       <r>   -6.4271    1.0000 </r>
       <r>   -6.3356    1.0000 </r>
       <r>   -6.3220    1.0000 </r>
       <r>   -6.2885    1.0000 </r>
       <r>   -5.8092    1.0000 </r>
       <r>   -5.8061    1.0000 </r>
       <r>   -5.3972    1.0000 </r>
       <r>   -4.9890    1.0000 </r>
       <r>   -4.9776    1.0000 </r>
       <r>   -4.5782    1.0000 </r>
       <r>   -4.5041    1.0000 </r>
       <r>   -4.4915    1.0000 </r>
       <r>   -4.4872    1.0000 </r>
       <r>   -4.4030    1.0000 </r>
       <r>   -4.2925    1.0000 </r>
       <r>   -4.2482    1.0000 </r>
       <r>   -4.1210    1.0000 </r>
       <r>   -4.0550    1.0000 </r>
       <r>   -4.0213    1.0000 </r>
       <r>   -3.9572    1.0000 </r>
       <r>   -3.9442    1.0000 </r>
       <r>   -3.8748    1.0000 </r>
       <r>   -3.8394    1.0000 </r>
       <r>   -3.7630    1.0000 </r>
       <r>   -3.5927    1.0000 </r>
       <r>   -3.4615    1.0000 </r>
       <r>   -3.4425    1.0000 </r>
       <r>   -3.3821    1.0000 </r>
       <r>   -3.3597    1.0000 </r>
       <r>   -3.2536    1.0000 </r>
       <r>   -3.1744    1.0000 </r>
       <r>   -2.9037    1.0000 </r>
       <r>   -2.8604    1.0000 </r>
       <r>   -2.6891    1.0000 </r>
       <r>   -2.6098    1.0000 </r>
       <r>   -2.5514    1.0000 </r>
       <r>   -2.2704    1.0000 </r>
       <r>   -2.2462    1.0000 </r>
       <r>   -2.0352    1.0000 </r>
       <r>   -1.9977    1.0000 </r>
       <r>   -1.7486    1.0000 </r>
       <r>   -1.6994    1.0000 </r>
       <r>   -1.6546    1.0000 </r>
       <r>   -1.6108    1.0000 </r>
       <r>   -1.5539    1.0000 </r>
       <r>   -1.5478    1.0000 </r>
       <r>   -1.2923    1.0000 </r>
       <r>   -1.2366    1.0002 </r>
       <r>   -1.1913    1.0005 </r>
       <r>   -1.1065    1.0033 </r>
       <r>   -1.0308    1.0119 </r>
       <r>   -0.9539    1.0283 </r>
       <r>   -0.8719    1.0313 </r>
       <r>   -0.8585    1.0260 </r>
       <r>   -0.8060    0.9750 </r>
       <r>   -0.8047    0.9730 </r>
       <r>   -0.7310    0.7913 </r>
       <r>   -0.6869    0.6258 </r>
       <r>   -0.6598    0.5130 </r>
       <r>   -0.5896    0.2329 </r>
       <r>   -0.5635    0.1488 </r>
       <r>   -0.4933    0.0057 </r>
       <r>   -0.4550   -0.0260 </r>
       <r>   -0.4375   -0.0324 </r>
       <r>   -0.3077   -0.0166 </r>
       <r>   -0.2279   -0.0049 </r>
       <r>   -0.1468   -0.0009 </r>
       <r>   -0.0212   -0.0000 </r>
       <r>    0.1522   -0.0000 </r>
       <r>    0.2378   -0.0000 </r>
       <r>    0.3085   -0.0000 </r>
       <r>    0.9178   -0.0000 </r>
       <r>    1.0359   -0.0000 </r>
       <r>    1.0593   -0.0000 </r>
       <r>    1.3348   -0.0000 </r>
       <r>    1.6338   -0.0000 </r>
       <r>    2.0817   -0.0000 </r>
       <r>    2.2458   -0.0000 </r>
       <r>    2.4742   -0.0000 </r>
       <r>    2.6387   -0.0000 </r>
      </set>
      <set comment="kpoint 9">
       <r>   -9.7642    1.0000 </r>
       <r>   -8.5745    1.0000 </r>
       <r>   -7.5956    1.0000 </r>
       <r>   -7.4998    1.0000 </r>
       <r>   -7.3030    1.0000 </r>
       <r>   -7.2463    1.0000 </r>
       <r>   -7.0916    1.0000 </r>
       <r>   -7.0702    1.0000 </r>
       <r>   -6.9474    1.0000 </r>
       <r>   -6.9421    1.0000 </r>
       <r>   -6.9110    1.0000 </r>
       <r>   -6.7062    1.0000 </r>
       <r>   -6.5915    1.0000 </r>
       <r>   -6.5337    1.0000 </r>
       <r>   -6.5137    1.0000 </r>
       <r>   -6.3771    1.0000 </r>
       <r>   -6.2974    1.0000 </r>
       <r>   -6.2386    1.0000 </r>
       <r>   -6.1577    1.0000 </r>
       <r>   -6.1232    1.0000 </r>
       <r>   -5.7441    1.0000 </r>
       <r>   -5.7372    1.0000 </r>
       <r>   -5.3459    1.0000 </r>
       <r>   -4.9942    1.0000 </r>
       <r>   -4.9520    1.0000 </r>
       <r>   -4.6445    1.0000 </r>
       <r>   -4.5791    1.0000 </r>
       <r>   -4.4705    1.0000 </r>
       <r>   -4.4546    1.0000 </r>
       <r>   -4.4476    1.0000 </r>
       <r>   -4.3624    1.0000 </r>
       <r>   -4.3120    1.0000 </r>
       <r>   -4.0859    1.0000 </r>
       <r>   -4.0648    1.0000 </r>
       <r>   -3.9728    1.0000 </r>
       <r>   -3.9674    1.0000 </r>
       <r>   -3.8666    1.0000 </r>
       <r>   -3.8553    1.0000 </r>
       <r>   -3.7974    1.0000 </r>
       <r>   -3.7048    1.0000 </r>
       <r>   -3.6987    1.0000 </r>
       <r>   -3.5896    1.0000 </r>
       <r>   -3.5170    1.0000 </r>
       <r>   -3.4681    1.0000 </r>
       <r>   -3.4476    1.0000 </r>
       <r>   -3.3274    1.0000 </r>
       <r>   -3.3014    1.0000 </r>
       <r>   -3.1132    1.0000 </r>
       <r>   -2.9478    1.0000 </r>
       <r>   -2.8915    1.0000 </r>
       <r>   -2.7315    1.0000 </r>
       <r>   -2.5666    1.0000 </r>
       <r>   -2.3486    1.0000 </r>
       <r>   -2.3298    1.0000 </r>
       <r>   -2.1510    1.0000 </r>
       <r>   -2.1457    1.0000 </r>
       <r>   -2.0262    1.0000 </r>
       <r>   -1.9398    1.0000 </r>
       <r>   -1.8169    1.0000 </r>
       <r>   -1.7754    1.0000 </r>
       <r>   -1.7354    1.0000 </r>
       <r>   -1.6467    1.0000 </r>
       <r>   -1.6395    1.0000 </r>
       <r>   -1.5791    1.0000 </r>
       <r>   -1.5220    1.0000 </r>
       <r>   -1.3622    1.0000 </r>
       <r>   -1.2048    1.0004 </r>
       <r>   -1.1633    1.0010 </r>
       <r>   -1.1143    1.0028 </r>
       <r>   -1.0098    1.0158 </r>
       <r>   -1.0024    1.0173 </r>
       <r>   -0.9473    1.0297 </r>
       <r>   -0.9001    1.0354 </r>
       <r>   -0.8373    1.0119 </r>
       <r>   -0.8186    0.9923 </r>
       <r>   -0.7834    0.9345 </r>
       <r>   -0.6852    0.6191 </r>
       <r>   -0.6799    0.5973 </r>
       <r>   -0.6657    0.5379 </r>
       <r>   -0.5597    0.1380 </r>
       <r>   -0.4825   -0.0061 </r>
       <r>   -0.4670   -0.0189 </r>
       <r>   -0.3270   -0.0208 </r>
       <r>   -0.2688   -0.0097 </r>
       <r>   -0.2280   -0.0049 </r>
       <r>   -0.1132   -0.0004 </r>
       <r>    0.5235   -0.0000 </r>
       <r>    0.9622   -0.0000 </r>
       <r>    0.9835   -0.0000 </r>
       <r>    1.0414   -0.0000 </r>
       <r>    1.5941   -0.0000 </r>
       <r>    1.6217   -0.0000 </r>
       <r>    2.0929   -0.0000 </r>
       <r>    2.3199   -0.0000 </r>
       <r>    2.7140   -0.0000 </r>
       <r>    3.5435   -0.0000 </r>
      </set>
      <set comment="kpoint 10">
       <r>   -9.4422    1.0000 </r>
       <r>   -8.2796    1.0000 </r>
       <r>   -7.5240    1.0000 </r>
       <r>   -7.2497    1.0000 </r>
       <r>   -7.1867    1.0000 </r>
       <r>   -7.0456    1.0000 </r>
       <r>   -6.9881    1.0000 </r>
       <r>   -6.9061    1.0000 </r>
       <r>   -6.8299    1.0000 </r>
       <r>   -6.7066    1.0000 </r>
       <r>   -6.6663    1.0000 </r>
       <r>   -6.5608    1.0000 </r>
       <r>   -6.4532    1.0000 </r>
       <r>   -6.3668    1.0000 </r>
       <r>   -6.3045    1.0000 </r>
       <r>   -6.2374    1.0000 </r>
       <r>   -6.1080    1.0000 </r>
       <r>   -6.0372    1.0000 </r>
       <r>   -5.9875    1.0000 </r>
       <r>   -5.8676    1.0000 </r>
       <r>   -5.6431    1.0000 </r>
       <r>   -5.5855    1.0000 </r>
       <r>   -5.2680    1.0000 </r>
       <r>   -5.0329    1.0000 </r>
       <r>   -4.9404    1.0000 </r>
       <r>   -4.7652    1.0000 </r>
       <r>   -4.7109    1.0000 </r>
       <r>   -4.6595    1.0000 </r>
       <r>   -4.5538    1.0000 </r>
       <r>   -4.4423    1.0000 </r>
       <r>   -4.3522    1.0000 </r>
       <r>   -4.3033    1.0000 </r>
       <r>   -4.1517    1.0000 </r>
       <r>   -4.1120    1.0000 </r>
       <r>   -4.0321    1.0000 </r>
       <r>   -3.9431    1.0000 </r>
       <r>   -3.8884    1.0000 </r>
       <r>   -3.8213    1.0000 </r>
       <r>   -3.7772    1.0000 </r>
       <r>   -3.7168    1.0000 </r>
       <r>   -3.6957    1.0000 </r>
       <r>   -3.6727    1.0000 </r>
       <r>   -3.6509    1.0000 </r>
       <r>   -3.6335    1.0000 </r>
       <r>   -3.5601    1.0000 </r>
       <r>   -3.4993    1.0000 </r>
       <r>   -3.3880    1.0000 </r>
       <r>   -3.1799    1.0000 </r>
       <r>   -3.0980    1.0000 </r>
       <r>   -2.9966    1.0000 </r>
       <r>   -2.8277    1.0000 </r>
       <r>   -2.7427    1.0000 </r>
       <r>   -2.6250    1.0000 </r>
       <r>   -2.5366    1.0000 </r>
       <r>   -2.4917    1.0000 </r>
       <r>   -2.4416    1.0000 </r>
       <r>   -2.3735    1.0000 </r>
       <r>   -2.2888    1.0000 </r>
       <r>   -2.2152    1.0000 </r>
       <r>   -2.1523    1.0000 </r>
       <r>   -2.1323    1.0000 </r>
       <r>   -2.0436    1.0000 </r>
       <r>   -1.8895    1.0000 </r>
       <r>   -1.8457    1.0000 </r>
       <r>   -1.7476    1.0000 </r>
       <r>   -1.6137    1.0000 </r>
       <r>   -1.5320    1.0000 </r>
       <r>   -1.4666    1.0000 </r>
       <r>   -1.3970    1.0000 </r>
       <r>   -1.3096    1.0000 </r>
       <r>   -1.2880    1.0000 </r>
       <r>   -1.2279    1.0002 </r>
       <r>   -1.1045    1.0034 </r>
       <r>   -1.0063    1.0165 </r>
       <r>   -0.9326    1.0325 </r>
       <r>   -0.9027    1.0355 </r>
       <r>   -0.8693    1.0305 </r>
       <r>   -0.7903    0.9481 </r>
       <r>   -0.7279    0.7811 </r>
       <r>   -0.7081    0.7096 </r>
       <r>   -0.5613    0.1427 </r>
       <r>   -0.4954    0.0082 </r>
       <r>   -0.4555   -0.0258 </r>
       <r>   -0.3882   -0.0336 </r>
       <r>   -0.2136   -0.0037 </r>
       <r>   -0.0408   -0.0001 </r>
       <r>    0.1058   -0.0000 </r>
       <r>    0.4394   -0.0000 </r>
       <r>    0.6542   -0.0000 </r>
       <r>    1.1760   -0.0000 </r>
       <r>    1.5733   -0.0000 </r>
       <r>    2.3386   -0.0000 </r>
       <r>    2.5069   -0.0000 </r>
       <r>    2.9244   -0.0000 </r>
       <r>    3.3003   -0.0000 </r>
       <r>    3.4158   -0.0000 </r>
      </set>
      <set comment="kpoint 11">
       <r>   -8.9040    1.0000 </r>
       <r>   -7.8652    1.0000 </r>
       <r>   -7.4515    1.0000 </r>
       <r>   -7.2379    1.0000 </r>
       <r>   -7.0336    1.0000 </r>
       <r>   -6.7904    1.0000 </r>
       <r>   -6.7032    1.0000 </r>
       <r>   -6.5955    1.0000 </r>
       <r>   -6.5136    1.0000 </r>
       <r>   -6.4182    1.0000 </r>
       <r>   -6.3624    1.0000 </r>
       <r>   -6.2971    1.0000 </r>
       <r>   -6.2337    1.0000 </r>
       <r>   -6.0911    1.0000 </r>
       <r>   -5.9948    1.0000 </r>
       <r>   -5.9336    1.0000 </r>
       <r>   -5.8419    1.0000 </r>
       <r>   -5.7525    1.0000 </r>
       <r>   -5.7185    1.0000 </r>
       <r>   -5.5819    1.0000 </r>
       <r>   -5.4936    1.0000 </r>
       <r>   -5.2869    1.0000 </r>
       <r>   -5.1687    1.0000 </r>
       <r>   -5.1286    1.0000 </r>
       <r>   -5.0054    1.0000 </r>
       <r>   -4.9709    1.0000 </r>
       <r>   -4.8673    1.0000 </r>
       <r>   -4.8140    1.0000 </r>
       <r>   -4.7527    1.0000 </r>
       <r>   -4.5655    1.0000 </r>
       <r>   -4.5263    1.0000 </r>
       <r>   -4.4380    1.0000 </r>
       <r>   -4.3576    1.0000 </r>
       <r>   -4.3150    1.0000 </r>
       <r>   -4.2301    1.0000 </r>
       <r>   -4.1221    1.0000 </r>
       <r>   -4.0856    1.0000 </r>
       <r>   -4.0028    1.0000 </r>
       <r>   -3.9419    1.0000 </r>
       <r>   -3.9151    1.0000 </r>
       <r>   -3.8941    1.0000 </r>
       <r>   -3.7714    1.0000 </r>
       <r>   -3.7017    1.0000 </r>
       <r>   -3.6289    1.0000 </r>
       <r>   -3.5328    1.0000 </r>
       <r>   -3.4625    1.0000 </r>
       <r>   -3.4039    1.0000 </r>
       <r>   -3.3402    1.0000 </r>
       <r>   -3.2316    1.0000 </r>
       <r>   -3.1890    1.0000 </r>
       <r>   -3.1221    1.0000 </r>
       <r>   -3.0596    1.0000 </r>
       <r>   -2.9876    1.0000 </r>
       <r>   -2.8715    1.0000 </r>
       <r>   -2.8241    1.0000 </r>
       <r>   -2.7617    1.0000 </r>
       <r>   -2.7166    1.0000 </r>
       <r>   -2.6432    1.0000 </r>
       <r>   -2.5789    1.0000 </r>
       <r>   -2.5628    1.0000 </r>
       <r>   -2.3906    1.0000 </r>
       <r>   -2.2575    1.0000 </r>
       <r>   -2.1568    1.0000 </r>
       <r>   -2.1056    1.0000 </r>
       <r>   -2.0531    1.0000 </r>
       <r>   -1.9347    1.0000 </r>
       <r>   -1.8858    1.0000 </r>
       <r>   -1.7239    1.0000 </r>
       <r>   -1.6436    1.0000 </r>
       <r>   -1.5409    1.0000 </r>
       <r>   -1.4893    1.0000 </r>
       <r>   -1.3737    1.0000 </r>
       <r>   -1.1944    1.0005 </r>
       <r>   -1.1324    1.0020 </r>
       <r>   -1.0904    1.0045 </r>
       <r>   -1.0093    1.0159 </r>
       <r>   -0.9313    1.0327 </r>
       <r>   -0.8657    1.0291 </r>
       <r>   -0.8307    1.0058 </r>
       <r>   -0.7888    0.9452 </r>
       <r>   -0.7121    0.7244 </r>
       <r>   -0.6577    0.5039 </r>
       <r>   -0.5868    0.2230 </r>
       <r>   -0.5776    0.1924 </r>
       <r>   -0.4237   -0.0349 </r>
       <r>   -0.2721   -0.0102 </r>
       <r>   -0.0633   -0.0001 </r>
       <r>    0.1264   -0.0000 </r>
       <r>    0.6095   -0.0000 </r>
       <r>    0.9266   -0.0000 </r>
       <r>    1.8399   -0.0000 </r>
       <r>    2.6350   -0.0000 </r>
       <r>    2.9259   -0.0000 </r>
       <r>    3.0794   -0.0000 </r>
       <r>    3.6923   -0.0000 </r>
       <r>    3.8753   -0.0000 </r>
      </set>
      <set comment="kpoint 12">
       <r>   -8.2564    1.0000 </r>
       <r>   -7.9149    1.0000 </r>
       <r>   -7.5289    1.0000 </r>
       <r>   -7.0764    1.0000 </r>
       <r>   -6.9476    1.0000 </r>
       <r>   -6.8312    1.0000 </r>
       <r>   -6.4170    1.0000 </r>
       <r>   -6.3613    1.0000 </r>
       <r>   -6.2114    1.0000 </r>
       <r>   -6.1496    1.0000 </r>
       <r>   -6.0639    1.0000 </r>
       <r>   -6.0221    1.0000 </r>
       <r>   -5.9614    1.0000 </r>
       <r>   -5.8565    1.0000 </r>
       <r>   -5.7546    1.0000 </r>
       <r>   -5.7030    1.0000 </r>
       <r>   -5.6474    1.0000 </r>
       <r>   -5.5825    1.0000 </r>
       <r>   -5.5045    1.0000 </r>
       <r>   -5.4110    1.0000 </r>
       <r>   -5.3525    1.0000 </r>
       <r>   -5.2779    1.0000 </r>
       <r>   -5.2435    1.0000 </r>
       <r>   -5.1495    1.0000 </r>
       <r>   -5.0786    1.0000 </r>
       <r>   -5.0151    1.0000 </r>
       <r>   -5.0102    1.0000 </r>
       <r>   -4.9513    1.0000 </r>
       <r>   -4.8697    1.0000 </r>
       <r>   -4.7624    1.0000 </r>
       <r>   -4.7313    1.0000 </r>
       <r>   -4.6527    1.0000 </r>
       <r>   -4.5410    1.0000 </r>
       <r>   -4.4628    1.0000 </r>
       <r>   -4.3941    1.0000 </r>
       <r>   -4.2490    1.0000 </r>
       <r>   -4.2231    1.0000 </r>
       <r>   -4.1740    1.0000 </r>
       <r>   -4.1230    1.0000 </r>
       <r>   -4.0885    1.0000 </r>
       <r>   -4.0381    1.0000 </r>
       <r>   -3.9750    1.0000 </r>
       <r>   -3.9130    1.0000 </r>
       <r>   -3.7517    1.0000 </r>
       <r>   -3.6849    1.0000 </r>
       <r>   -3.6017    1.0000 </r>
       <r>   -3.5402    1.0000 </r>
       <r>   -3.5102    1.0000 </r>
       <r>   -3.4545    1.0000 </r>
       <r>   -3.3778    1.0000 </r>
       <r>   -3.2626    1.0000 </r>
       <r>   -3.2282    1.0000 </r>
       <r>   -3.0832    1.0000 </r>
       <r>   -2.9247    1.0000 </r>
       <r>   -2.8542    1.0000 </r>
       <r>   -2.7600    1.0000 </r>
       <r>   -2.7337    1.0000 </r>
       <r>   -2.6711    1.0000 </r>
       <r>   -2.5439    1.0000 </r>
       <r>   -2.5032    1.0000 </r>
       <r>   -2.3795    1.0000 </r>
       <r>   -2.3257    1.0000 </r>
       <r>   -2.2832    1.0000 </r>
       <r>   -2.2134    1.0000 </r>
       <r>   -2.1439    1.0000 </r>
       <r>   -2.0537    1.0000 </r>
       <r>   -1.9289    1.0000 </r>
       <r>   -1.7832    1.0000 </r>
       <r>   -1.7446    1.0000 </r>
       <r>   -1.7244    1.0000 </r>
       <r>   -1.6586    1.0000 </r>
       <r>   -1.5654    1.0000 </r>
       <r>   -1.4390    1.0000 </r>
       <r>   -1.3601    1.0000 </r>
       <r>   -1.2472    1.0001 </r>
       <r>   -1.1991    1.0004 </r>
       <r>   -1.1126    1.0029 </r>
       <r>   -1.0536    1.0084 </r>
       <r>   -0.9024    1.0355 </r>
       <r>   -0.8576    1.0256 </r>
       <r>   -0.8213    0.9956 </r>
       <r>   -0.8018    0.9684 </r>
       <r>   -0.6393    0.4262 </r>
       <r>   -0.6234    0.3610 </r>
       <r>   -0.4925    0.0047 </r>
       <r>   -0.2025   -0.0030 </r>
       <r>   -0.1622   -0.0013 </r>
       <r>    0.0672   -0.0000 </r>
       <r>    0.5827   -0.0000 </r>
       <r>    1.1839   -0.0000 </r>
       <r>    1.7435   -0.0000 </r>
       <r>    2.4999   -0.0000 </r>
       <r>    3.0299   -0.0000 </r>
       <r>    3.2184   -0.0000 </r>
       <r>    3.9260   -0.0000 </r>
       <r>    4.2132   -0.0000 </r>
      </set>
      <set comment="kpoint 13">
       <r>   -8.5811    1.0000 </r>
       <r>   -7.7638    1.0000 </r>
       <r>   -7.4946    1.0000 </r>
       <r>   -7.2248    1.0000 </r>
       <r>   -6.9630    1.0000 </r>
       <r>   -6.7845    1.0000 </r>
       <r>   -6.5164    1.0000 </r>
       <r>   -6.4535    1.0000 </r>
       <r>   -6.2984    1.0000 </r>
       <r>   -6.2650    1.0000 </r>
       <r>   -6.2361    1.0000 </r>
       <r>   -6.1405    1.0000 </r>
       <r>   -6.0776    1.0000 </r>
       <r>   -5.9377    1.0000 </r>
       <r>   -5.8404    1.0000 </r>
       <r>   -5.7894    1.0000 </r>
       <r>   -5.7245    1.0000 </r>
       <r>   -5.6891    1.0000 </r>
       <r>   -5.5765    1.0000 </r>
       <r>   -5.4238    1.0000 </r>
       <r>   -5.3862    1.0000 </r>
       <r>   -5.2911    1.0000 </r>
       <r>   -5.1934    1.0000 </r>
       <r>   -5.1331    1.0000 </r>
       <r>   -5.0406    1.0000 </r>
       <r>   -5.0117    1.0000 </r>
       <r>   -4.9422    1.0000 </r>
       <r>   -4.8401    1.0000 </r>
       <r>   -4.8157    1.0000 </r>
       <r>   -4.7333    1.0000 </r>
       <r>   -4.6646    1.0000 </r>
       <r>   -4.5880    1.0000 </r>
       <r>   -4.4997    1.0000 </r>
       <r>   -4.4479    1.0000 </r>
       <r>   -4.3400    1.0000 </r>
       <r>   -4.2115    1.0000 </r>
       <r>   -4.1599    1.0000 </r>
       <r>   -4.0936    1.0000 </r>
       <r>   -4.0483    1.0000 </r>
       <r>   -3.9792    1.0000 </r>
       <r>   -3.9078    1.0000 </r>
       <r>   -3.8237    1.0000 </r>
       <r>   -3.7673    1.0000 </r>
       <r>   -3.7328    1.0000 </r>
       <r>   -3.6454    1.0000 </r>
[...]
       <r>   -4.2214    1.0000 </r>
       <r>   -4.1555    1.0000 </r>
       <r>   -4.1064    1.0000 </r>
       <r>   -4.0743    1.0000 </r>
       <r>   -4.0543    1.0000 </r>
       <r>   -3.9660    1.0000 </r>
       <r>   -3.9018    1.0000 </r>
       <r>   -3.8428    1.0000 </r>
       <r>   -3.6792    1.0000 </r>
       <r>   -3.5762    1.0000 </r>
       <r>   -3.5581    1.0000 </r>
       <r>   -3.5113    1.0000 </r>
       <r>   -3.4991    1.0000 </r>
       <r>   -3.4496    1.0000 </r>
       <r>   -3.4160    1.0000 </r>
       <r>   -3.2876    1.0000 </r>
       <r>   -3.2516    1.0000 </r>
       <r>   -3.1278    1.0000 </r>
       <r>   -2.9092    1.0000 </r>
       <r>   -2.8456    1.0000 </r>
       <r>   -2.7718    1.0000 </r>
       <r>   -2.7476    1.0000 </r>
       <r>   -2.6784    1.0000 </r>
       <r>   -2.5711    1.0000 </r>
       <r>   -2.4977    1.0000 </r>
       <r>   -2.4138    1.0000 </r>
       <r>   -2.3942    1.0000 </r>
       <r>   -2.3820    1.0000 </r>
       <r>   -2.2193    1.0000 </r>
       <r>   -2.1635    1.0000 </r>
       <r>   -2.0954    1.0000 </r>
       <r>   -2.0003    1.0000 </r>
       <r>   -1.9366    1.0000 </r>
       <r>   -1.8286    1.0000 </r>
       <r>   -1.7794    1.0000 </r>
       <r>   -1.7458    1.0000 </r>
       <r>   -1.6728    1.0000 </r>
       <r>   -1.5762    1.0000 </r>
       <r>   -1.4593    1.0000 </r>
       <r>   -1.3143    1.0000 </r>
       <r>   -1.2720    1.0001 </r>
       <r>   -1.0987    1.0038 </r>
       <r>   -1.0175    1.0143 </r>
       <r>   -0.8370    1.0116 </r>
       <r>   -0.7839    0.9354 </r>
       <r>   -0.7572    0.8713 </r>
       <r>   -0.6794    0.5951 </r>
       <r>   -0.5597    0.1382 </r>
       <r>   -0.4868   -0.0017 </r>
       <r>   -0.4284   -0.0343 </r>
       <r>   -0.2822   -0.0118 </r>
       <r>    0.2641   -0.0000 </r>
       <r>    0.4585   -0.0000 </r>
       <r>    0.8091   -0.0000 </r>
       <r>    1.6005   -0.0000 </r>
       <r>    1.6272   -0.0000 </r>
       <r>    2.4369   -0.0000 </r>
       <r>    2.6183   -0.0000 </r>
       <r>    3.2807   -0.0000 </r>
       <r>    3.5793   -0.0000 </r>
       <r>    4.0617   -0.0000 </r>
      </set>
     </set>
    </set>
   </array>
  </eigenvalues>
  <separator name="orbital magnetization" >
   <v name="MAGDIPOLOUT">      0.00000000      0.00000000      0.00000000</v>
  </separator>
  <dos>
   <i name="efermi">     -0.65676392 </i>
   <total>
    <array>
     <dimension dim="1">gridpoints</dimension>
     <dimension dim="2">spin</dimension>
     <field>energy</field>
     <field>total</field>
     <field>integrated</field>
     <set>
      <set comment="spin 1">
       <r>   -12.0328     0.0000     0.0000 </r>
       <r>   -11.9710     0.0000     0.0000 </r>
       <r>   -11.9093     0.0000     0.0000 </r>
       <r>   -11.8475     0.0000     0.0000 </r>
       <r>   -11.7857     0.0000     0.0000 </r>
       <r>   -11.7239     0.0000     0.0000 </r>
       <r>   -11.6622    -0.0000    -0.0000 </r>
       <r>   -11.6004    -0.0000    -0.0000 </r>
       <r>   -11.5386    -0.0000    -0.0000 </r>
       <r>   -11.4768    -0.0000    -0.0000 </r>
       <r>   -11.4150    -0.0000    -0.0000 </r>
       <r>   -11.3533    -0.0000    -0.0000 </r>
       <r>   -11.2915    -0.0000    -0.0000 </r>
       <r>   -11.2297    -0.0000    -0.0000 </r>
       <r>   -11.1679    -0.0000    -0.0000 </r>
       <r>   -11.1062    -0.0000    -0.0000 </r>
       <r>   -11.0444    -0.0000    -0.0000 </r>
       <r>   -10.9826    -0.0000    -0.0000 </r>
       <r>   -10.9208    -0.0000    -0.0000 </r>
       <r>   -10.8591    -0.0000    -0.0000 </r>
       <r>   -10.7973    -0.0000    -0.0000 </r>
       <r>   -10.7355    -0.0000    -0.0000 </r>
       <r>   -10.6737    -0.0000    -0.0000 </r>
       <r>   -10.6120    -0.0002    -0.0000 </r>
       <r>   -10.5502    -0.0007    -0.0001 </r>
       <r>   -10.4884    -0.0028    -0.0002 </r>
       <r>   -10.4266    -0.0081    -0.0007 </r>
       <r>   -10.3648    -0.0180    -0.0018 </r>
       <r>   -10.3031    -0.0279    -0.0036 </r>
       <r>   -10.2413    -0.0200    -0.0048 </r>
       <r>   -10.1795     0.0348    -0.0027 </r>
       <r>   -10.1177     0.1580     0.0071 </r>
       <r>   -10.0560     0.3396     0.0281 </r>
       <r>    -9.9942     0.5401     0.0615 </r>
       <r>    -9.9324     0.7203     0.1060 </r>
       <r>    -9.8706     0.8570     0.1589 </r>
       <r>    -9.8089     0.9327     0.2165 </r>
       <r>    -9.7471     0.9320     0.2741 </r>
       <r>    -9.6853     0.8646     0.3275 </r>
       <r>    -9.6235     0.7821     0.3758 </r>
       <r>    -9.5617     0.7604     0.4228 </r>
       <r>    -9.5000     0.8447     0.4750 </r>
       <r>    -9.4382     0.9932     0.5363 </r>
       <r>    -9.3764     1.0951     0.6040 </r>
       <r>    -9.3146     1.0742     0.6703 </r>
       <r>    -9.2529     0.9596     0.7296 </r>
       <r>    -9.1911     0.8353     0.7812 </r>
       <r>    -9.1293     0.7554     0.8279 </r>
       <r>    -9.0675     0.7442     0.8739 </r>
       <r>    -9.0058     0.8454     0.9261 </r>
       <r>    -8.9440     1.0983     0.9939 </r>
       <r>    -8.8822     1.4531     1.0837 </r>
       <r>    -8.8204     1.7706     1.1931 </r>
       <r>    -8.7587     1.9469     1.3134 </r>
       <r>    -8.6969     1.9981     1.4368 </r>
       <r>    -8.6351     1.9900     1.5597 </r>
       <r>    -8.5733     1.9409     1.6796 </r>
       <r>    -8.5115     1.8551     1.7942 </r>
       <r>    -8.4498     1.8148     1.9063 </r>
       <r>    -8.3880     1.9468     2.0266 </r>
       <r>    -8.3262     2.2669     2.1667 </r>
       <r>    -8.2644     2.6062     2.3277 </r>
       <r>    -8.2027     2.7594     2.4981 </r>
       <r>    -8.1409     2.7031     2.6651 </r>
       <r>    -8.0791     2.6123     2.8265 </r>
       <r>    -8.0173     2.6591     2.9908 </r>
       <r>    -7.9556     2.8493     3.1668 </r>
       <r>    -7.8938     3.0714     3.3565 </r>
       <r>    -7.8320     3.2945     3.5601 </r>
       <r>    -7.7702     3.7193     3.7898 </r>
       <r>    -7.7084     4.6638     4.0779 </r>
       <r>    -7.6467     6.1629     4.4587 </r>
       <r>    -7.5849     7.6873     4.9336 </r>
       <r>    -7.5231     8.4849     5.4577 </r>
       <r>    -7.4613     8.3706     5.9748 </r>
       <r>    -7.3996     8.0344     6.4712 </r>
       <r>    -7.3378     8.3557     6.9874 </r>
       <r>    -7.2760     9.5157     7.5752 </r>
       <r>    -7.2142    11.0085     8.2553 </r>
       <r>    -7.1525    12.3850     9.0204 </r>
       <r>    -7.0907    13.5983     9.8604 </r>
       <r>    -7.0289    14.6156    10.7633 </r>
       <r>    -6.9671    15.1471    11.6991 </r>
       <r>    -6.9054    15.0288    12.6275 </r>
       <r>    -6.8436    14.6370    13.5317 </r>
       <r>    -6.7818    14.6280    14.4354 </r>
       <r>    -6.7200    15.3352    15.3828 </r>
       <r>    -6.6582    16.6109    16.4089 </r>
       <r>    -6.5965    18.1792    17.5320 </r>
       <r>    -6.5347    19.8961    18.7611 </r>
       <r>    -6.4729    21.6308    20.0974 </r>
       <r>    -6.4111    23.0916    21.5239 </r>
       <r>    -6.3494    23.9234    23.0018 </r>
       <r>    -6.2876    23.9791    24.4831 </r>
       <r>    -6.2258    23.4654    25.9328 </r>
       <r>    -6.1640    22.7868    27.3405 </r>
       <r>    -6.1023    22.1949    28.7116 </r>
       <r>    -6.0405    21.6195    30.0472 </r>
       <r>    -5.9787    20.9359    31.3405 </r>
       <r>    -5.9169    20.3420    32.5972 </r>
       <r>    -5.8551    20.2379    33.8474 </r>
       <r>    -5.7934    20.6496    35.1231 </r>
       <r>    -5.7316    20.9680    36.4184 </r>
       <r>    -5.6698    20.4455    37.6815 </r>
       <r>    -5.6080    18.9187    38.8502 </r>
       <r>    -5.5463    16.9786    39.8991 </r>
       <r>    -5.4845    15.4987    40.8565 </r>
       <r>    -5.4227    15.0125    41.7840 </r>
       <r>    -5.3609    15.4062    42.7357 </r>
       <r>    -5.2992    16.1422    43.7329 </r>
       <r>    -5.2374    16.8781    44.7756 </r>
       <r>    -5.1756    17.8613    45.8790 </r>
       <r>    -5.1138    19.5124    47.0844 </r>
       <r>    -5.0521    21.6021    48.4189 </r>
       <r>    -4.9903    23.1672    49.8501 </r>
       <r>    -4.9285    23.4603    51.2994 </r>
       <r>    -4.8667    22.7511    52.7049 </r>
       <r>    -4.8049    21.9292    54.0596 </r>
       <r>    -4.7432    21.5488    55.3908 </r>
       <r>    -4.6814    21.6268    56.7268 </r>
       <r>    -4.6196    22.1763    58.0968 </r>
       <r>    -4.5578    23.3652    59.5402 </r>
       <r>    -4.4961    24.9960    61.0844 </r>
       <r>    -4.4343    26.2612    62.7067 </r>
       <r>    -4.3725    26.4236    64.3391 </r>
       <r>    -4.3107    25.7077    65.9272 </r>
       <r>    -4.2490    25.2434    67.4867 </r>
       <r>    -4.1872    26.0013    69.0930 </r>
       <r>    -4.1254    27.8713    70.8148 </r>
       <r>    -4.0636    29.8531    72.6590 </r>
       <r>    -4.0018    31.0253    74.5756 </r>
       <r>    -3.9401    31.1940    76.5027 </r>
       <r>    -3.8783    30.7556    78.4027 </r>
       <r>    -3.8165    30.2758    80.2730 </r>
       <r>    -3.7547    30.2543    82.1420 </r>
       <r>    -3.6930    30.9701    84.0552 </r>
       <r>    -3.6312    32.2937    86.0502 </r>
       <r>    -3.5694    33.6344    88.1281 </r>
       <r>    -3.5076    34.1255    90.2362 </r>
       <r>    -3.4459    33.0131    92.2757 </r>
       <r>    -3.3841    30.1581    94.1387 </r>
       <r>    -3.3223    26.2878    95.7627 </r>
       <r>    -3.2605    22.5998    97.1588 </r>
       <r>    -3.1988    20.0055    98.3947 </r>
       <r>    -3.1370    18.7667    99.5541 </r>
       <r>    -3.0752    18.7132   100.7101 </r>
       <r>    -3.0134    19.5536   101.9181 </r>
       <r>    -2.9516    20.9626   103.2131 </r>
       <r>    -2.8899    22.5768   104.6078 </r>
       <r>    -2.8281    24.0542   106.0938 </r>
       <r>    -2.7663    25.1550   107.6478 </r>
       <r>    -2.7045    25.7331   109.2375 </r>
       <r>    -2.6428    25.6434   110.8216 </r>
       <r>    -2.5810    24.7851   112.3528 </r>
       <r>    -2.5192    23.3972   113.7982 </r>
       <r>    -2.4574    22.1891   115.1689 </r>
       <r>    -2.3957    21.8718   116.5201 </r>
       <r>    -2.3339    22.5166   117.9111 </r>
       <r>    -2.2721    23.5366   119.3651 </r>
       <r>    -2.2103    24.2499   120.8632 </r>
       <r>    -2.1485    24.3515   122.3675 </r>
       <r>    -2.0868    23.9837   123.8492 </r>
       <r>    -2.0250    23.5360   125.3032 </r>
       <r>    -1.9632    23.3463   126.7454 </r>
       <r>    -1.9014    23.5441   128.1999 </r>
       <r>    -1.8397    24.1404   129.6912 </r>
       <r>    -1.7779    25.0700   131.2399 </r>
       <r>    -1.7161    26.0094   132.8467 </r>
       <r>    -1.6543    26.3764   134.4762 </r>
       <r>    -1.5926    25.7581   136.0674 </r>
       <r>    -1.5308    24.2947   137.5683 </r>
       <r>    -1.4690    22.5716   138.9627 </r>
       <r>    -1.4072    21.2305   140.2742 </r>
       <r>    -1.3455    20.6808   141.5518 </r>
       <r>    -1.2837    21.0075   142.8496 </r>
       <r>    -1.2219    22.0256   144.2102 </r>
       <r>    -1.1601    23.4451   145.6586 </r>
       <r>    -1.0983    25.0784   147.2079 </r>
       <r>    -1.0366    26.9282   148.8714 </r>
       <r>    -0.9748    29.0274   150.6646 </r>
       <r>    -0.9130    31.1768   152.5906 </r>
       <r>    -0.8512    32.9085   154.6236 </r>
       <r>    -0.7895    33.7235   156.7069 </r>
       <r>    -0.7277    33.3194   158.7653 </r>
       <r>    -0.6659    31.6842   160.7226 </r>
       <r>    -0.6041    29.1648   162.5243 </r>
       <r>    -0.5424    26.4051   164.1555 </r>
       <r>    -0.4806    23.9418   165.6346 </r>
       <r>    -0.4188    21.7632   166.9790 </r>
       <r>    -0.3570    19.4361   168.1797 </r>
       <r>    -0.2952    16.7330   169.2135 </r>
       <r>    -0.2335    13.9588   170.0758 </r>
       <r>    -0.1717    11.5769   170.7910 </r>
       <r>    -0.1099     9.7070   171.3906 </r>
       <r>    -0.0481     8.1398   171.8935 </r>
       <r>     0.0136     6.7030   172.3076 </r>
       <r>     0.0754     5.4460   172.6440 </r>
       <r>     0.1372     4.5378   172.9243 </r>
       <r>     0.1990     4.1369   173.1799 </r>
       <r>     0.2607     4.3346   173.4477 </r>
       <r>     0.3225     5.0722   173.7610 </r>
       <r>     0.3843     6.0576   174.1352 </r>
       <r>     0.4461     6.8492   174.5584 </r>
       <r>     0.5078     7.0977   174.9968 </r>
       <r>     0.5696     6.7129   175.4115 </r>
       <r>     0.6314     5.8393   175.7723 </r>
       <r>     0.6932     4.7701   176.0670 </r>
       <r>     0.7550     3.8920   176.3074 </r>
       <r>     0.8167     3.5724   176.5281 </r>
       <r>     0.8785     3.9549   176.7724 </r>
       <r>     0.9403     4.8309   177.0708 </r>
       <r>     1.0021     5.7382   177.4253 </r>
       <r>     1.0638     6.2266   177.8100 </r>
       <r>     1.1256     6.0934   178.1864 </r>
       <r>     1.1874     5.4587   178.5236 </r>
       <r>     1.2492     4.6570   178.8113 </r>
       <r>     1.3109     4.0187   179.0596 </r>
       <r>     1.3727     3.7042   179.2884 </r>
       <r>     1.4345     3.7255   179.5186 </r>
       <r>     1.4963     4.0426   179.7683 </r>
       <r>     1.5581     4.5509   180.0495 </r>
       <r>     1.6198     5.0685   180.3626 </r>
       <r>     1.6816     5.4983   180.7022 </r>
       <r>     1.7434     5.9342   181.0688 </r>
       <r>     1.8052     6.4267   181.4659 </r>
       <r>     1.8669     6.7009   181.8798 </r>
       <r>     1.9287     6.3407   182.2715 </r>
       <r>     1.9905     5.2952   182.5986 </r>
       <r>     2.0523     4.0469   182.8486 </r>
       <r>     2.1140     3.2193   183.0475 </r>
       <r>     2.1758     3.1144   183.2399 </r>
       <r>     2.2376     3.6525   183.4656 </r>
       <r>     2.2994     4.6224   183.7511 </r>
       <r>     2.3611     5.8504   184.1125 </r>
       <r>     2.4229     7.1221   184.5525 </r>
       <r>     2.4847     8.0603   185.0504 </r>
       <r>     2.5465     8.2309   185.5589 </r>
       <r>     2.6083     7.4385   186.0185 </r>
       <r>     2.6700     5.8983   186.3828 </r>
       <r>     2.7318     4.1342   186.6382 </r>
       <r>     2.7936     2.7506   186.8082 </r>
       <r>     2.8554     2.2148   186.9450 </r>
       <r>     2.9171     2.6481   187.1086 </r>
       <r>     2.9789     3.7146   187.3380 </r>
       <r>     3.0407     4.7863   187.6337 </r>
       <r>     3.1025     5.3424   187.9638 </r>
       <r>     3.1642     5.2660   188.2891 </r>
       <r>     3.2260     4.7749   188.5841 </r>
       <r>     3.2878     4.1391   188.8398 </r>
       <r>     3.3496     3.5450   189.0588 </r>
       <r>     3.4114     3.1438   189.2530 </r>
       <r>     3.4731     3.0338   189.4404 </r>
       <r>     3.5349     3.1506   189.6350 </r>
       <r>     3.5967     3.2986   189.8388 </r>
       <r>     3.6585     3.3474   190.0456 </r>
       <r>     3.7202     3.3370   190.2517 </r>
       <r>     3.7820     3.3660   190.4597 </r>
       <r>     3.8438     3.4253   190.6713 </r>
       <r>     3.9056     3.3948   190.8810 </r>
       <r>     3.9673     3.2049   191.0790 </r>
       <r>     4.0291     2.9416   191.2607 </r>
       <r>     4.0909     2.7307   191.4294 </r>
       <r>     4.1527     2.5552   191.5872 </r>
       <r>     4.2144     2.2672   191.7273 </r>
       <r>     4.2762     1.7783   191.8372 </r>
       <r>     4.3380     1.1807   191.9101 </r>
       <r>     4.3998     0.6654   191.9512 </r>
       <r>     4.4616     0.3519   191.9729 </r>
       <r>     4.5233     0.2137   191.9861 </r>
       <r>     4.5851     0.1488   191.9953 </r>
       <r>     4.6469     0.0888   192.0008 </r>
       <r>     4.7087     0.0305   192.0027 </r>
       <r>     4.7704    -0.0060   192.0023 </r>
       <r>     4.8322    -0.0163   192.0013 </r>
       <r>     4.8940    -0.0123   192.0006 </r>
       <r>     4.9558    -0.0061   192.0002 </r>
       <r>     5.0175    -0.0022   192.0000 </r>
       <r>     5.0793    -0.0006   192.0000 </r>
       <r>     5.1411    -0.0001   192.0000 </r>
       <r>     5.2029    -0.0000   192.0000 </r>
       <r>     5.2647    -0.0000   192.0000 </r>
       <r>     5.3264    -0.0000   192.0000 </r>
       <r>     5.3882    -0.0000   192.0000 </r>
       <r>     5.4500    -0.0000   192.0000 </r>
       <r>     5.5118    -0.0000   192.0000 </r>
       <r>     5.5735    -0.0000   192.0000 </r>
       <r>     5.6353    -0.0000   192.0000 </r>
       <r>     5.6971    -0.0000   192.0000 </r>
       <r>     5.7589    -0.0000   192.0000 </r>
       <r>     5.8206     0.0000   192.0000 </r>
       <r>     5.8824     0.0000   192.0000 </r>
       <r>     5.9442     0.0000   192.0000 </r>
       <r>     6.0060     0.0000   192.0000 </r>
       <r>     6.0677     0.0000   192.0000 </r>
       <r>     6.1295     0.0000   192.0000 </r>
       <r>     6.1913     0.0000   192.0000 </r>
       <r>     6.2531     0.0000   192.0000 </r>
       <r>     6.3149     0.0000   192.0000 </r>
       <r>     6.3766     0.0000   192.0000 </r>
       <r>     6.4384     0.0000   192.0000 </r>
       <r>     6.5002     0.0000   192.0000 </r>
      </set>
     </set>
    </array>
   </total>
  </dos>
 </calculation>
 <structure name="finalpos" >
  <crystal>
   <varray name="basis" >
    <v>       5.55785930       0.00000000       0.00000000 </v>
    <v>       2.77892965       4.81324734       0.00000000 </v>
    <v>       0.00000000       0.00000000      30.80695967 </v>
   </varray>
   <i name="volume">    824.12780743 </i>
   <varray name="rec_basis" >
    <v>       0.17992539      -0.10387997       0.00000000 </v>
    <v>       0.00000000       0.20775994       0.00000000 </v>
    <v>       0.00000000       0.00000000       0.03246020 </v>
   </varray>
  </crystal>
  <varray name="positions" >
   <v>       0.00000000       0.00000000       0.38952237 </v>
   <v>       0.50000000       0.00000000       0.38952237 </v>
   <v>       0.00000000       0.50000000       0.38952237 </v>
   <v>       0.50000000       0.50000000       0.38952237 </v>
   <v>       0.16652883       0.16652883       0.46542487 </v>
   <v>       0.66694234       0.16652883       0.46542487 </v>
   <v>       0.16652883       0.66694234       0.46542487 </v>
   <v>       0.66666667       0.66666667       0.46426737 </v>
   <v>       0.83396869       0.33206261       0.54005199 </v>
   <v>       0.33333333       0.33333333       0.53994492 </v>
   <v>       0.83396869       0.83396869       0.54005199 </v>
   <v>       0.33206261       0.83396869       0.54005199 </v>
   <v>       0.50048728       0.99902544       0.61498914 </v>
   <v>       0.99902544       0.50048728       0.61498914 </v>
   <v>       0.50048728       0.50048728       0.61498914 </v>
   <v>       0.00000000       0.00000000       0.61904352 </v>
   <v>       0.00000000       0.00000000       0.66953436 </v>
  </varray>
  <varray name="selective"  type="logical" >
   <v type="logical" >  F  F  F </v>
   <v type="logical" >  F  F  F </v>
   <v type="logical" >  F  F  F </v>
   <v type="logical" >  F  F  F </v>
   <v type="logical" >  T  T  T </v>
   <v type="logical" >  T  T  T </v>
   <v type="logical" >  T  T  T </v>
   <v type="logical" >  T  T  T </v>
   <v type="logical" >  T  T  T </v>
   <v type="logical" >  T  T  T </v>
   <v type="logical" >  T  T  T </v>
   <v type="logical" >  T  T  T </v>
   <v type="logical" >  T  T  T </v>
   <v type="logical" >  T  T  T </v>
   <v type="logical" >  T  T  T </v>
   <v type="logical" >  T  T  T </v>
   <v type="logical" >  T  T  T </v>
  </varray>
  <nose>
   <v>      -3.00000000       0.00000000       0.00010000       0.00010000 </v>
  </nose>
 </structure>
</modeling>
