 vasp.5.4.4.18Apr17-6-g9f103f2a35 (build Apr 28 2017 10:53:45) complex          
  
 executed on             LinuxIFC date 2020.02.17  09:19:49
 running on   24 total cores
 distrk:  each k-point on   24 cores,    1 groups
 distr:  one band on NCORES_PER_BAND=   1 cores,   24 groups


--------------------------------------------------------------------------------------------------------


 INCAR:
 POTCAR:    PAW_PBE Au 04Oct2007                  
 POTCAR:    PAW_PBE Pt 04Feb2005                  
 POTCAR:    PAW_PBE Ir 06Sep2000                  
 POTCAR:    PAW_PBE H 15Jun2001                   

 ----------------------------------------------------------------------------- 
|                                                                             |
|           W    W    AA    RRRRR   N    N  II  N    N   GGGG   !!!           |
|           W    W   A  A   R    R  NN   N  II  NN   N  G    G  !!!           |
|           W    W  A    A  R    R  N N  N  II  N N  N  G       !!!           |
|           W WW W  AAAAAA  RRRRR   N  N N  II  N  N N  G  GGG   !            |
|           WW  WW  A    A  R   R   N   NN  II  N   NN  G    G                |
|           W    W  A    A  R    R  N    N  II  N    N   GGGG   !!!           |
|                                                                             |
|      For optimal performance we recommend to set                            |
|        NCORE= 4 - approx SQRT( number of cores)                             |
|      NCORE specifies how many cores store one orbital (NPAR=cpu/NCORE).     |
|      This setting can  greatly improve the performance of VASP for DFT.     |
|      The default,   NCORE=1            might be grossly inefficient         |
|      on modern multi-core architectures or massively parallel machines.     |
|      Do your own testing !!!!                                               |
|      Unfortunately you need to use the default for GW and RPA calculations. |
|      (for HF NCORE is supported but not extensively tested yet)             |
|                                                                             |
 ----------------------------------------------------------------------------- 

 POTCAR:    PAW_PBE Au 04Oct2007                  
   SHA256 =  d0044ae04e2bdce24051b198fc5c053d722a5bc6fe3c3b100514a13fc5d2db88 Au
   COPYR  = (c) Copyright 04Oct2007 Georg Kresse                                
   COPYR  = This file is part of the software VASP. Any use, copying, and all ot
   COPYR  = If you do not have a valid VASP license, you may not use, copy or di
   VRHFIN =Au: s1d10                                                            
   LEXCH  = PE                                                                  
   EATOM  =   926.0867 eV,   68.0654 Ry                                         
                                                                                
   TITEL  = PAW_PBE Au 04Oct2007                                                
   LULTRA =        F    use ultrasoft PP ?                                      
   IUNSCR =        1    unscreen: 0-lin 1-nonlin 2-no                           
   RPACOR =    2.330    partial core radius                                     
   POMASS =  196.966; ZVAL   =   11.000    mass and valenz                      
   RCORE  =    2.500    outmost cutoff radius                                   
   RWIGS  =    2.840; RWIGS  =    1.503    wigner-seitz radius (au A)           
   ENMAX  =  229.943; ENMIN  =  172.457 eV                                      
   ICORE  =        3    local potential                                         
   LCOR   =        T    correct aug charges                                     
   LPAW   =        T    paw PP                                                  
   EAUG   =  356.670                                                            
   DEXC   =    0.000                                                            
   RMAX   =    2.562    core radius for proj-oper                               
   RAUG   =    1.300    factor for augmentation sphere                          
   RDEP   =    2.598    radius for radial grids                                 
   RDEPT  =    2.193    core radius for aug-charge                              
                                                                                
   Atomic configuration                                                         
   16 entries                                                                   
     n  l   j            E        occ.                                          
     1  0  0.50    -80748.5001   2.0000                                         
     2  0  0.50    -14244.7466   2.0000                                         
     2  1  1.50    -12310.9591   6.0000                                         
     3  0  0.50     -3362.1768   2.0000                                         
     3  1  1.50     -2801.5463   6.0000                                         
     3  2  2.50     -2203.8206  10.0000                                         
     4  0  0.50      -729.8168   2.0000                                         
     4  1  1.50      -546.0527   6.0000                                         
     4  2  2.50      -325.7302  10.0000                                         
     4  3  3.50       -81.1472  14.0000                                         
     5  0  0.50      -108.3201   2.0000                                         
     5  1  1.50       -59.7479   6.0000                                         
     5  2  2.50        -6.8783  10.0000                                         
     6  0  0.50        -5.7602   1.0000                                         
     6  1  1.50        -6.8029   0.0000                                         
     5  3  2.50        -1.3606   0.0000                                         
   Description                                                                  
     l       E           TYP  RCUT    TYP  RCUT                                 
     2     -6.8782861     23  2.500                                             
     2     -8.2388687     23  2.500                                             
     0     -5.7601759     23  2.500                                             
     0     -0.8493231     23  2.500                                             
     1     -2.7211652     23  2.500                                             
     1     27.2116520     23  2.500                                             
     3     -1.3605826     23  2.500                                             
  local pseudopotential read in
  partial core-charges read in
  partial kinetic energy density read in
  atomic valenz-charges read in
  non local Contribution for L=           2  read in
    real space projection operators read in
  non local Contribution for L=           2  read in
    real space projection operators read in
  non local Contribution for L=           0  read in
    real space projection operators read in
  non local Contribution for L=           0  read in
    real space projection operators read in
  non local Contribution for L=           1  read in
    real space projection operators read in
  non local Contribution for L=           1  read in
    real space projection operators read in
    PAW grid and wavefunctions read in
 
   number of l-projection  operators is LMAX  =           6
   number of lm-projection operators is LMMAX =          18
 
 POTCAR:    PAW_PBE Pt 04Feb2005                  
   SHA256 =  3ed90460adef76debcff1cfb73ee1349b515b1a3db03439735b44de3a8db7dc8 Pt
   COPYR  = (c) Copyright 04Feb2005 Georg Kresse                                
   COPYR  = This file is part of the software VASP. Any use, copying, and all ot
   COPYR  = If you do not have a valid VASP license, you may not use, copy or di
   VRHFIN =Pt: s1d9                                                             
   LEXCH  = PE                                                                  
   EATOM  =   729.1176 eV,   53.5886 Ry                                         
                                                                                
   TITEL  = PAW_PBE Pt 04Feb2005                                                
   LULTRA =        F    use ultrasoft PP ?                                      
   IUNSCR =        1    unscreen: 0-lin 1-nonlin 2-no                           
   RPACOR =    2.330    partial core radius                                     
   POMASS =  195.080; ZVAL   =   10.000    mass and valenz                      
   RCORE  =    2.600    outmost cutoff radius                                   
   RWIGS  =    2.750; RWIGS  =    1.455    wigner-seitz radius (au A)           
   ENMAX  =  230.283; ENMIN  =  172.712 eV                                      
   ICORE  =        3    local potential                                         
   LCOR   =        T    correct aug charges                                     
   LPAW   =        T    paw PP                                                  
   EAUG   =  358.966                                                            
   DEXC   =    0.000                                                            
   RMAX   =    2.658    core radius for proj-oper                               
   RAUG   =    1.300    factor for augmentation sphere                          
   RDEP   =    2.761    radius for radial grids                                 
   RDEPT  =    2.203    core radius for aug-charge                              
                                                                                
   Atomic configuration                                                         
   16 entries                                                                   
     n  l   j            E        occ.                                          
     1  0  0.50    -78401.1885   2.0000                                         
     2  0  0.50    -13770.7750   2.0000                                         
     2  1  1.50    -11931.0468   6.0000                                         
     3  0  0.50     -3234.7234   2.0000                                         
     3  1  1.50     -2699.2216   6.0000                                         
     3  2  2.50     -2119.5714  10.0000                                         
     4  0  0.50      -695.1528   2.0000                                         
     4  1  1.50      -519.6034   6.0000                                         
     4  2  2.50      -306.6786  10.0000                                         
     4  3  3.50       -70.1041  14.0000                                         
     5  0  0.50      -101.7747   2.0000                                         
     5  1  1.50       -55.9873   6.0000                                         
     5  2  2.50        -6.1423   9.0000                                         
     6  0  0.50        -5.6573   1.0000                                         
     6  1  1.50        -6.8029   0.0000                                         
     5  3  2.50        -1.3606   0.0000                                         
   Description                                                                  
     l       E           TYP  RCUT    TYP  RCUT                                 
     2     -6.1423404     23  2.500                                             
     2     -7.5029230     23  2.500                                             
     0     -5.6573207     23  2.500                                             
     0      0.7416693     23  2.500                                             
     1     -2.7211652     23  2.600                                             
     1     20.4087390     23  2.600                                             
     3     -1.3605826     23  2.500                                             
  local pseudopotential read in
  partial core-charges read in
  partial kinetic energy density read in
  atomic valenz-charges read in
  non local Contribution for L=           2  read in
    real space projection operators read in
  non local Contribution for L=           2  read in
    real space projection operators read in
  non local Contribution for L=           0  read in
    real space projection operators read in
  non local Contribution for L=           0  read in
    real space projection operators read in
  non local Contribution for L=           1  read in
    real space projection operators read in
  non local Contribution for L=           1  read in
    real space projection operators read in
    PAW grid and wavefunctions read in
 
   number of l-projection  operators is LMAX  =           6
   number of lm-projection operators is LMMAX =          18
 
 POTCAR:    PAW_PBE Ir 06Sep2000                  
   SHA256 =  7c6af8d4d487b237782eb51e6f62977b27a1da78c3c96acd1cebefd6c308f120 Ir
   COPYR  = (c) Copyright 06Sep2000 Georg Kresse                                
   COPYR  = This file is part of the software VASP. Any use, copying, and all ot
   COPYR  = If you do not have a valid VASP license, you may not use, copy or di
   VRHFIN =Ir: s1d8                                                             
   LEXCH  = PE                                                                  
   EATOM  =   560.1833 eV,   41.1723 Ry                                         
                                                                                
   TITEL  = PAW_PBE Ir 06Sep2000                                                
   LULTRA =        F    use ultrasoft PP ?                                      
   IUNSCR =        1    unscreen: 0-lin 1-nonlin 2-no                           
   RPACOR =    2.250    partial core radius                                     
   POMASS =  192.220; ZVAL   =    9.000    mass and valenz                      
   RCORE  =    2.600    outmost cutoff radius                                   
   RWIGS  =    2.690; RWIGS  =    1.423    wigner-seitz radius (au A)           
   ENMAX  =  210.864; ENMIN  =  158.148 eV                                      
   RCLOC  =    1.857    cutoff for local pot                                    
   LCOR   =        T    correct aug charges                                     
   LPAW   =        T    paw PP                                                  
   EAUG   =  318.962                                                            
   DEXC   =    0.000                                                            
   RMAX   =    2.667    core radius for proj-oper                               
   RAUG   =    1.300    factor for augmentation sphere                          
   RDEP   =    2.748    radius for radial grids                                 
   RDEPT  =    2.300    core radius for aug-charge                              
                                                                                
   Atomic configuration                                                         
   16 entries                                                                   
     n  l   j            E        occ.                                          
     1  0  0.50    -76100.0449   2.0000                                         
     2  0  0.50    -13308.1683   2.0000                                         
     2  1  1.50    -11558.0021   6.0000                                         
     3  0  0.50     -3110.7274   2.0000                                         
     3  1  1.50     -2599.2109   6.0000                                         
     3  2  2.50     -2037.1515  10.0000                                         
     4  0  0.50      -661.6001   2.0000                                         
     4  1  1.50      -493.8981   6.0000                                         
     4  2  2.50      -288.1909  10.0000                                         
     4  3  3.50       -59.5718  14.0000                                         
     5  0  0.50       -95.3879   2.0000                                         
     5  1  1.50       -52.2747   6.0000                                         
     5  2  2.50        -5.4180   8.0000                                         
     6  0  0.50        -5.5479   1.0000                                         
     6  1  1.50        -6.8029   0.0000                                         
     5  3  2.50        -1.3606   0.0000                                         
   Description                                                                  
     l       E           TYP  RCUT    TYP  RCUT                                 
     2     -5.4179967     23  2.600                                             
     2     -6.7785793     23  2.600                                             
     0     -5.5478636     23  2.600                                             
     0      2.2542272     23  2.600                                             
     1     -2.7211652     23  2.600                                             
     1     20.4087390     23  2.600                                             
  local pseudopotential read in
  partial core-charges read in
  partial kinetic energy density read in
  atomic valenz-charges read in
  non local Contribution for L=           2  read in
    real space projection operators read in
  non local Contribution for L=           2  read in
    real space projection operators read in
  non local Contribution for L=           0  read in
    real space projection operators read in
  non local Contribution for L=           0  read in
    real space projection operators read in
  non local Contribution for L=           1  read in
    real space projection operators read in
  non local Contribution for L=           1  read in
    real space projection operators read in
    PAW grid and wavefunctions read in
 
   number of l-projection  operators is LMAX  =           6
   number of lm-projection operators is LMMAX =          18
 
 POTCAR:    PAW_PBE H 15Jun2001                   
   SHA256 =  030f79b5d3ab3cf0e668861823c8fb652ff669f3e15e46930bd03bfd63a607b6 H/
   COPYR  = (c) Copyright 15Jun2001 Georg Kresse                                
   COPYR  = This file is part of the software VASP. Any use, copying, and all ot
   COPYR  = If you do not have a valid VASP license, you may not use, copy or di
   VRHFIN =H: ultrasoft test                                                    
   LEXCH  = PE                                                                  
   EATOM  =    12.4884 eV,    0.9179 Ry                                         
                                                                                
   TITEL  = PAW_PBE H 15Jun2001                                                 
   LULTRA =        F    use ultrasoft PP ?                                      
   IUNSCR =        0    unscreen: 0-lin 1-nonlin 2-no                           
   RPACOR =    0.000    partial core radius                                     
   POMASS =    1.000; ZVAL   =    1.000    mass and valenz                      
   RCORE  =    1.100    outmost cutoff radius                                   
   RWIGS  =    0.700; RWIGS  =    0.370    wigner-seitz radius (au A)           
   ENMAX  =  250.000; ENMIN  =  200.000 eV                                      
   RCLOC  =    0.701    cutoff for local pot                                    
   LCOR   =        T    correct aug charges                                     
   LPAW   =        T    paw PP                                                  
   EAUG   =  400.000                                                            
   RMAX   =    1.123    core radius for proj-oper                               
   RAUG   =    1.200    factor for augmentation sphere                          
   RDEP   =    1.112    radius for radial grids                                 
   RDEPT  =    0.926    core radius for aug-charge                              
                                                                                
   Atomic configuration                                                         
    2 entries                                                                   
     n  l   j            E        occ.                                          
     1  0  0.50        -6.4927   1.0000                                         
     2  1  0.50        -3.4015   0.0000                                         
   Description                                                                  
     l       E           TYP  RCUT    TYP  RCUT                                 
     0     -6.4927494     23  1.100                                             
     0      6.8029130     23  1.100                                             
     1     -4.0817478     23  1.100                                             
  local pseudopotential read in
  atomic valenz-charges read in
  non local Contribution for L=           0  read in
    real space projection operators read in
  non local Contribution for L=           0  read in
    real space projection operators read in
  non local Contribution for L=           1  read in
    real space projection operators read in
    PAW grid and wavefunctions read in
 
   number of l-projection  operators is LMAX  =           3
   number of lm-projection operators is LMMAX =           5
 

 ----------------------------------------------------------------------------- 
|                                                                             |
|  ADVICE TO THIS USER RUNNING 'VASP/VAMP'   (HEAR YOUR MASTER'S VOICE ...):  |
|                                                                             |
|      You have a (more or less) 'large supercell' and for larger cells       |
|      it might be more efficient to use real space projection opertators     |
|      So try LREAL= Auto  in the INCAR   file.                               |
|      Mind:          For very  accurate calculation you might also keep the  |
|      reciprocal projection scheme          (i.e. LREAL=.FALSE.)             |
|                                                                             |
 ----------------------------------------------------------------------------- 

  PAW_PBE Au 04Oct2007                  :
 energy of atom  1       EATOM= -926.0867
 kinetic energy error for atom=    0.0152 (will be added to EATOM!!)
  PAW_PBE Pt 04Feb2005                  :
 energy of atom  2       EATOM= -729.1176
 kinetic energy error for atom=    0.0144 (will be added to EATOM!!)
  PAW_PBE Ir 06Sep2000                  :
 energy of atom  3       EATOM= -560.1833
 kinetic energy error for atom=    0.0056 (will be added to EATOM!!)
  PAW_PBE H 15Jun2001                   :
 energy of atom  4       EATOM=  -12.4884
 kinetic energy error for atom=    0.0203 (will be added to EATOM!!)
 
 
 POSCAR: Au Pt Ir  H                             
  positions in cartesian coordinates
  No initial velocities read in
 exchange correlation table for  LEXCH =        8
   RHO(1)=    0.500       N(1)  =     2000
   RHO(2)=  100.500       N(2)  =     4000
 


--------------------------------------------------------------------------------------------------------


 ion  position               nearest neighbor table
   1  0.000  0.000  0.390-   3 2.78   3 2.78   4 2.78   4 2.78   2 2.78   2 2.78   5 2.84   7 2.84
                             6 2.84
   2  0.500  0.000  0.390-   4 2.78   3 2.78   4 2.78   3 2.78   1 2.78   1 2.78   8 2.81   6 2.84
                             5 2.84
   3  0.000  0.500  0.390-   1 2.78   1 2.78   2 2.78   2 2.78   4 2.78   4 2.78   8 2.81   7 2.84
                             5 2.84
   4  0.500  0.500  0.390-   2 2.78   1 2.78   2 2.78   1 2.78   3 2.78   3 2.78   8 2.81   7 2.84
                             6 2.84
   5  0.167  0.167  0.465-   7 2.78   6 2.78   8 2.78   8 2.78   7 2.78   6 2.78  11 2.80   9 2.80
                            16 2.80   1 2.84   3 2.84   2 2.84
   6  0.667  0.167  0.465-   7 2.78   5 2.78   8 2.78   8 2.78   7 2.78   5 2.78  10 2.80   9 2.80
                            16 2.80   1 2.84   2 2.84   4 2.84
   7  0.167  0.667  0.465-   5 2.78   6 2.78   8 2.78   8 2.78   6 2.78   5 2.78  10 2.80  11 2.80
                            16 2.80   1 2.84   3 2.84   4 2.84
   8  0.667  0.667  0.464-   6 2.78   7 2.78   5 2.78   5 2.78   6 2.78   7 2.78   4 2.81   3 2.81
                             2 2.81   9 2.84  11 2.84  10 2.84
   9  0.834  0.332  0.540-  10 2.77  11 2.77  16 2.78  16 2.78  11 2.79  10 2.79   5 2.80   6 2.80
                            15 2.81  14 2.81   8 2.84  12 2.91
  10  0.834  0.834  0.540-   9 2.77  11 2.77  16 2.78  16 2.78   9 2.79  11 2.79   6 2.80   7 2.80
                            13 2.81  14 2.81   8 2.84  12 2.91
  11  0.332  0.834  0.540-   9 2.77  10 2.77  16 2.78  16 2.78   9 2.79  10 2.79   5 2.80   7 2.80
                            13 2.81  15 2.81   8 2.84  12 2.91
  12  0.000  0.000  0.619-  17 1.56  14 2.78  13 2.78  15 2.78  15 2.78  13 2.78  14 2.78  10 2.91
                            11 2.91   9 2.91
  13  0.500  0.999  0.615-  14 2.77  15 2.77  12 2.78  12 2.78  14 2.79  15 2.79  11 2.81  10 2.81
                            16 2.82
  14  0.999  0.500  0.615-  13 2.77  15 2.77  12 2.78  12 2.78  13 2.79  15 2.79   9 2.81  10 2.81
                            16 2.82
  15  0.500  0.500  0.615-  13 2.77  14 2.77  12 2.78  12 2.78  13 2.79  14 2.79   9 2.81  11 2.81
                            16 2.82
  16  0.333  0.333  0.540-  10 2.78  10 2.78  11 2.78  11 2.78   9 2.78   9 2.78   6 2.80   7 2.80
                             5 2.80  13 2.82  14 2.82  15 2.82
  17  0.000  0.000  0.670-  12 1.56
 
  LATTYP: Found a hexagonal cell.
 ALAT       =     5.5578593001
 C/A-ratio  =     5.5429542221
  
  Lattice vectors:
  
 A1 = (   2.7789296501,  -4.8132473446,   0.0000000000)
 A2 = (  -5.5578593001,   0.0000000000,   0.0000000000)
 A3 = (   0.0000000000,   0.0000000000, -30.8069596737)


Analysis of symmetry for initial positions (statically):
=====================================================================
 Subroutine PRICEL returns:
 Original cell was already a primitive cell.
 

 Routine SETGRP: Setting up the symmetry group for a 
 hexagonal supercell.


 Subroutine GETGRP returns: Found  6 space group operations
 (whereof  6 operations were pure point group operations)
 out of a pool of 24 trial point group operations.


The static configuration has the point symmetry C_3v.


Analysis of symmetry for dynamics (positions and initial velocities):
=====================================================================
 Subroutine PRICEL returns:
 Original cell was already a primitive cell.
 

 Routine SETGRP: Setting up the symmetry group for a 
 hexagonal supercell.


 Subroutine GETGRP returns: Found  6 space group operations
 (whereof  6 operations were pure point group operations)
 out of a pool of 24 trial point group operations.


The dynamic configuration has the point symmetry C_3v.


Analysis of constrained symmetry for selective dynamics:
=====================================================================
 Subroutine PRICEL returns:
 Original cell was already a primitive cell.
 

 Routine SETGRP: Setting up the symmetry group for a 
 hexagonal supercell.


 Subroutine GETGRP returns: Found  6 space group operations
 (whereof  6 operations were pure point group operations)
 out of a pool of 24 trial point group operations.


The constrained configuration has the point symmetry C_3v.


 Subroutine INISYM returns: Found  6 space group operations
 (whereof  6 operations are pure point group operations),
 and found     1 'primitive' translations

 
 
 KPOINTS: KPOINTS created by Atomic Simulation Env

Automatic generation of k-mesh.
Space group operators:
 irot       det(A)        alpha          n_x          n_y          n_z        tau_x        tau_y        tau_z
    1     1.000000     0.000001     1.000000     0.000000     0.000000     0.000000     0.000000     0.000000
    2     1.000000   120.000000     0.000000     0.000000     1.000000     0.000000     0.000000     0.000000
    3     1.000000   120.000000     0.000000     0.000000    -1.000000     0.000000     0.000000     0.000000
    4    -1.000000   180.000000     0.500000    -0.866025     0.000000     0.000000     0.000000     0.000000
    5    -1.000000   180.000000     1.000000     0.000000     0.000000     0.000000     0.000000     0.000000
    6    -1.000000   180.000000    -0.500000    -0.866025     0.000000     0.000000     0.000000     0.000000
 
 Subroutine IBZKPT returns following result:
 ===========================================
 
 Found     20 irreducible k-points:
 
 Following reciprocal coordinates:
            Coordinates               Weight
  0.062500  0.062500  0.000000     48.000000
  0.187500  0.062500  0.000000     96.000000
  0.312500  0.062500  0.000000     96.000000
  0.437500  0.062500  0.000000     96.000000
 -0.437500  0.062500  0.000000     96.000000
 -0.312500  0.062500  0.000000     96.000000
 -0.187500  0.062500  0.000000     96.000000
 -0.062500  0.062500  0.000000     48.000000
  0.187500  0.187500  0.000000     48.000000
  0.312500  0.187500  0.000000     96.000000
  0.437500  0.187500  0.000000     96.000000
 -0.437500  0.187500  0.000000     96.000000
 -0.312500  0.187500  0.000000     96.000000
 -0.187500  0.187500  0.000000     48.000000
  0.312500  0.312500  0.000000     48.000000
  0.437500  0.312500  0.000000     96.000000
 -0.437500  0.312500  0.000000     96.000000
 -0.312500  0.312500  0.000000     48.000000
  0.437500  0.437500  0.000000     48.000000
 -0.437500  0.437500  0.000000     48.000000
 
 Following cartesian coordinates:
            Coordinates               Weight
  0.011245  0.006492  0.000000     48.000000
  0.033736 -0.006492  0.000000     96.000000
  0.056227 -0.019477  0.000000     96.000000
  0.078717 -0.032462  0.000000     96.000000
 -0.078717  0.058432  0.000000     96.000000
 -0.056227  0.045447  0.000000     96.000000
 -0.033736  0.032462  0.000000     96.000000
 -0.011245  0.019477  0.000000     48.000000
  0.033736  0.019477  0.000000     48.000000
  0.056227  0.006492  0.000000     96.000000
  0.078717 -0.006492  0.000000     96.000000
 -0.078717  0.084402  0.000000     96.000000
 -0.056227  0.071417  0.000000     96.000000
 -0.033736  0.058432  0.000000     48.000000
  0.056227  0.032462  0.000000     48.000000
  0.078717  0.019477  0.000000     96.000000
 -0.078717  0.110372  0.000000     96.000000
 -0.056227  0.097387  0.000000     48.000000
  0.078717  0.045447  0.000000     48.000000
 -0.078717  0.136342  0.000000     48.000000
 


--------------------------------------------------------------------------------------------------------




 Dimension of arrays:
   k-points           NKPTS =     20   k-points in BZ     NKDIM =     20   number of bands    NBANDS=     96
   number of dos      NEDOS =    301   number of ions     NIONS =     17
   non local maximal  LDIM  =      6   non local SUM 2l+1 LMDIM =     18
   total plane-waves  NPLWV = 112896
   max r-space proj   IRMAX =      1   max aug-charges    IRDMAX=  10104
   dimension x,y,z NGX =    28 NGY =   28 NGZ =  144
   dimension x,y,z NGXF=    56 NGYF=   56 NGZF=  288
   support grid    NGXF=    56 NGYF=   56 NGZF=  288
   ions per type =               1  14   1   1
   NGX,Y,Z   is equivalent  to a cutoff of   8.38,  8.38,  7.77 a.u.
   NGXF,Y,Z  is equivalent  to a cutoff of  16.75, 16.75, 15.54 a.u.

 SYSTEM =  unknown system                          
 POSCAR =  Au Pt Ir  H                             

 Startparameter for this run:
   NWRITE =      2    write-flag & timer
   PREC   = normal    normal or accurate (medium, high low for compatibility)
   ISTART =      0    job   : 0-new  1-cont  2-samecut
   ICHARG =      2    charge: 1-file 2-atom 10-const
   ISPIN  =      1    spin polarized calculation?
   LNONCOLLINEAR =      F non collinear calculations
   LSORBIT =      F    spin-orbit coupling
   INIWAV =      1    electr: 0-lowe 1-rand  2-diag
   LASPH  =      F    aspherical Exc in radial PAW
   METAGGA=      F    non-selfconsistent MetaGGA calc.

 Electronic Relaxation 1
   ENCUT  =  350.0 eV  25.72 Ry    5.07 a.u.   8.48  8.48 46.99*2*pi/ulx,y,z
   ENINI  =  350.0     initial cutoff
   ENAUG  =  400.0 eV  augmentation charge cutoff
   NELM   =     60;   NELMIN=  2; NELMDL= -5     # of ELM steps 
   EDIFF  = 0.1E-04   stopping-criterion for ELM
   LREAL  =      F    real-space projection
   NLSPLINE    = F    spline interpolate recip. space projectors
   LCOMPAT=      F    compatible to vasp.4.4
   GGA_COMPAT  = T    GGA compatible to vasp.4.4-vasp.4.6
   LMAXPAW     = -100 max onsite density
   LMAXMIX     =    2 max onsite mixed and CHGCAR
   VOSKOWN=      0    Vosko Wilk Nusair interpolation
   ROPT   =    0.00000   0.00000   0.00000   0.00000
 Ionic relaxation
   EDIFFG = -.5E-01   stopping-criterion for IOM
   NSW    =      0    number of steps for IOM
   NBLOCK =      1;   KBLOCK =      1    inner block; outer block 
   IBRION =     -1    ionic relax: 0-MD 1-quasi-New 2-CG
   NFREE  =      1    steps in history (QN), initial steepest desc. (CG)
   ISIF   =      2    stress and relaxation
   IWAVPR =     10    prediction:  0-non 1-charg 2-wave 3-comb
   ISYM   =      2    0-nonsym 1-usesym 2-fastsym
   LCORR  =      T    Harris-Foulkes like correction to forces

   POTIM  = 0.5000    time-step for ionic-motion
   TEIN   =    0.0    initial temperature
   TEBEG  =    0.0;   TEEND  =   0.0 temperature during run
   SMASS  =  -3.00    Nose mass-parameter (am)
   estimated Nose-frequenzy (Omega)   =  0.10E-29 period in steps =****** mass=  -0.706E-27a.u.
   SCALEE = 1.0000    scale energy and forces
   NPACO  =    256;   APACO  = 16.0  distance and # of slots for P.C.
   PSTRESS=    0.0 pullay stress

  Mass of Ions in am
   POMASS = 196.97195.08192.22  1.00
  Ionic Valenz
   ZVAL   =  11.00 10.00  9.00  1.00
  Atomic Wigner-Seitz radii
   RWIGS  =  -1.00 -1.00 -1.00 -1.00
  virtual crystal weights 
   VCA    =   1.00  1.00  1.00  1.00
   NELECT =     161.0000    total number of electrons
   NUPDOWN=      -1.0000    fix difference up-down

 DOS related values:
   EMIN   =  10.00;   EMAX   =-10.00  energy-range for DOS
   EFERMI =   0.00
   ISMEAR =     1;   SIGMA  =   0.20  broadening in eV -4-tet -1-fermi 0-gaus

 Electronic relaxation 2 (details)
   IALGO  =     38    algorithm
   LDIAG  =      T    sub-space diagonalisation (order eigenvalues)
   LSUBROT=      F    optimize rotation matrix (better conditioning)
   TURBO    =      0    0=normal 1=particle mesh
   IRESTART =      0    0=no restart 2=restart with 2 vectors
   NREBOOT  =      0    no. of reboots
   NMIN     =      0    reboot dimension
   EREF     =   0.00    reference energy to select bands
   IMIX   =      4    mixing-type and parameters
     AMIX     =   0.40;   BMIX     =  1.00
     AMIX_MAG =   1.60;   BMIX_MAG =  1.00
     AMIN     =   0.10
     WC   =   100.;   INIMIX=   1;  MIXPRE=   1;  MAXMIX= -45

 Intra band minimization:
   WEIMIN = 0.0000     energy-eigenvalue tresh-hold
   EBREAK =  0.26E-07  absolut break condition
   DEPER  =   0.30     relativ break condition  

   TIME   =   0.40     timestep for ELM

  volume/ion in A,a.u.               =      48.48       327.15
  Fermi-wavevector in a.u.,A,eV,Ry     =   0.949916  1.795081 12.277090  0.902341
  Thomas-Fermi vector in A             =   2.078244
 
 Write flags
   LWAVE        =      F    write WAVECAR
   LDOWNSAMPLE  =      F    k-point downsampling of WAVECAR
   LCHARG       =      F    write CHGCAR
   LVTOT        =      F    write LOCPOT, total local potential
   LVHAR        =      F    write LOCPOT, Hartree potential only
   LELF         =      F    write electronic localiz. function (ELF)
   LORBIT       =      0    0 simple, 1 ext, 2 COOP (PROOUT), +10 PAW based schemes


 Dipole corrections
   LMONO  =      F    monopole corrections only (constant potential shift)
   LDIPOL =      F    correct potential (dipole corrections)
   IDIPOL =      3    1-x, 2-y, 3-z, 4-all directions 
   EPSILON=  1.0000000 bulk dielectric constant

 Exchange correlation treatment:
   GGA     =    PE    GGA type
   LEXCH   =     8    internal setting for exchange type
   VOSKOWN=      0    Vosko Wilk Nusair interpolation
   LHFCALC =     F    Hartree Fock is set to
   LHFONE  =     F    Hartree Fock one center treatment
   AEXX    =    0.0000 exact exchange contribution

 Linear response parameters
   LEPSILON=     F    determine dielectric tensor
   LRPA    =     F    only Hartree local field effects (RPA)
   LNABLA  =     F    use nabla operator in PAW spheres
   LVEL    =     F    velocity operator in full k-point grid
   LINTERFAST=   F  fast interpolation
   KINTER  =     0    interpolate to denser k-point grid
   CSHIFT  =0.1000    complex shift for real part using Kramers Kronig
   OMEGAMAX=  -1.0    maximum frequency
   DEG_THRESHOLD= 0.2000000E-02 threshold for treating states as degnerate
   RTIME   =   -0.100 relaxation time in fs
  (WPLASMAI=    0.000 imaginary part of plasma frequency in eV, 0.658/RTIME)
   DFIELD  = 0.0000000 0.0000000 0.0000000 field for delta impulse in time
 
 Orbital magnetization related:
   ORBITALMAG=     F  switch on orbital magnetization
   LCHIMAG   =     F  perturbation theory with respect to B field
   DQ        =  0.001000  dq finite difference perturbation B field
   LLRAUG    =     F  two centre corrections for induced B field



--------------------------------------------------------------------------------------------------------


 Static calculation
 charge density and potential will be updated during run
 non-spin polarized calculation
 Variant of blocked Davidson
 Davidson routine will perform the subspace rotation
 perform sub-space diagonalisation
    after iterative eigenvector-optimisation
 modified Broyden-mixing scheme, WC =      100.0
 initial mixing is a Kerker type mixing with AMIX =  0.4000 and BMIX =      1.0000
 Hartree-type preconditioning will be used
 using additional bands           15
 reciprocal scheme for non local part
 use partial core corrections
 calculate Harris-corrections to forces 
   (improved forces if not selfconsistent)
 use gradient corrections 
 use of overlap-Matrix (Vanderbilt PP)
 Methfessel and Paxton  Order N= 1 SIGMA  =   0.20


--------------------------------------------------------------------------------------------------------


  energy-cutoff  :      350.00
  volume of cell :      824.13
      direct lattice vectors                 reciprocal lattice vectors
     5.557859300  0.000000000  0.000000000     0.179925390 -0.103879972  0.000000000
     2.778929650  4.813247345  0.000000000     0.000000000  0.207759944  0.000000000
     0.000000000  0.000000000 30.806959674     0.000000000  0.000000000  0.032460198

  length of vectors
     5.557859300  5.557859300 30.806959674     0.207759944  0.207759944  0.032460198


 
 k-points in units of 2pi/SCALE and weight: KPOINTS created by Atomic Simulation Env
   0.01124534  0.00649250  0.00000000       0.031
   0.03373601 -0.00649250  0.00000000       0.062
   0.05622668 -0.01947749  0.00000000       0.062
   0.07871736 -0.03246249  0.00000000       0.062
  -0.07871736  0.05843248  0.00000000       0.062
  -0.05622668  0.04544749  0.00000000       0.062
  -0.03373601  0.03246249  0.00000000       0.062
  -0.01124534  0.01947749  0.00000000       0.031
   0.03373601  0.01947749  0.00000000       0.031
   0.05622668  0.00649250  0.00000000       0.062
   0.07871736 -0.00649250  0.00000000       0.062
  -0.07871736  0.08440248  0.00000000       0.062
  -0.05622668  0.07141748  0.00000000       0.062
  -0.03373601  0.05843248  0.00000000       0.031
   0.05622668  0.03246249  0.00000000       0.031
   0.07871736  0.01947749  0.00000000       0.062
  -0.07871736  0.11037247  0.00000000       0.062
  -0.05622668  0.09738747  0.00000000       0.031
   0.07871736  0.04544749  0.00000000       0.031
  -0.07871736  0.13634246  0.00000000       0.031
 
 k-points in reciprocal lattice and weights: KPOINTS created by Atomic Simulation Env
   0.06250000  0.06250000  0.00000000       0.031
   0.18750000  0.06250000  0.00000000       0.062
   0.31250000  0.06250000  0.00000000       0.062
   0.43750000  0.06250000  0.00000000       0.062
  -0.43750000  0.06250000  0.00000000       0.062
  -0.31250000  0.06250000  0.00000000       0.062
  -0.18750000  0.06250000  0.00000000       0.062
  -0.06250000  0.06250000  0.00000000       0.031
   0.18750000  0.18750000  0.00000000       0.031
   0.31250000  0.18750000  0.00000000       0.062
   0.43750000  0.18750000  0.00000000       0.062
  -0.43750000  0.18750000  0.00000000       0.062
  -0.31250000  0.18750000  0.00000000       0.062
  -0.18750000  0.18750000  0.00000000       0.031
   0.31250000  0.31250000  0.00000000       0.031
   0.43750000  0.31250000  0.00000000       0.062
  -0.43750000  0.31250000  0.00000000       0.062
  -0.31250000  0.31250000  0.00000000       0.031
   0.43750000  0.43750000  0.00000000       0.031
  -0.43750000  0.43750000  0.00000000       0.031
 
 position of ions in fractional coordinates (direct lattice) 
   0.00000000  0.00000000  0.38952237
   0.50000000  0.00000000  0.38952237
   0.00000000  0.50000000  0.38952237
   0.50000000  0.50000000  0.38952237
   0.16652883  0.16652883  0.46542487
   0.66694234  0.16652883  0.46542487
   0.16652883  0.66694234  0.46542487
   0.66666667  0.66666667  0.46426737
   0.83396869  0.33206261  0.54005199
   0.83396869  0.83396869  0.54005199
   0.33206261  0.83396869  0.54005199
   0.00000000  0.00000000  0.61904352
   0.50048728  0.99902544  0.61498914
   0.99902544  0.50048728  0.61498914
   0.50048728  0.50048728  0.61498914
   0.33333333  0.33333333  0.53994492
   0.00000000  0.00000000  0.66953436
 
 position of ions in cartesian coordinates  (Angst):
   0.00000000  0.00000000 12.00000000
   2.77892965  0.00000000 12.00000000
   1.38946483  2.40662367 12.00000000
   4.16839448  2.40662367 12.00000000
   1.38831573  0.80154446 14.33832516
   4.16954357  0.80154446 14.33832516
   2.77892965  3.21015843 14.33832516
   5.55785930  3.20883156 14.30266626
   5.55785930  1.59829948 16.63736001
   6.95262100  4.01409760 16.63736001
   4.16309760  4.01409760 16.63736001
   0.00000000  0.00000000 19.07084875
   5.55785930  4.80855657 18.94594552
   6.94326179  2.40896906 18.94594552
   4.17245681  2.40896906 18.94594552
   2.77892965  1.60441578 16.63406129
   0.00000000  0.00000000 20.62631794
 


--------------------------------------------------------------------------------------------------------


 k-point  1 :   0.0625 0.0625 0.0000  plane waves:   12325
 k-point  2 :   0.1875 0.0625 0.0000  plane waves:   12294
 k-point  3 :   0.3125 0.0625 0.0000  plane waves:   12263
 k-point  4 :   0.4375 0.0625 0.0000  plane waves:   12221
 k-point  5 :  -0.4375 0.0625 0.0000  plane waves:   12211
 k-point  6 :  -0.3125 0.0625 0.0000  plane waves:   12242
 k-point  7 :  -0.1875 0.0625 0.0000  plane waves:   12280
 k-point  8 :  -0.0625 0.0625 0.0000  plane waves:   12329
 k-point  9 :   0.1875 0.1875 0.0000  plane waves:   12277
 k-point 10 :   0.3125 0.1875 0.0000  plane waves:   12288
 k-point 11 :   0.4375 0.1875 0.0000  plane waves:   12234
 k-point 12 :  -0.4375 0.1875 0.0000  plane waves:   12216
 k-point 13 :  -0.3125 0.1875 0.0000  plane waves:   12215
 k-point 14 :  -0.1875 0.1875 0.0000  plane waves:   12289
 k-point 15 :   0.3125 0.3125 0.0000  plane waves:   12275
 k-point 16 :   0.4375 0.3125 0.0000  plane waves:   12239
 k-point 17 :  -0.4375 0.3125 0.0000  plane waves:   12235
 k-point 18 :  -0.3125 0.3125 0.0000  plane waves:   12232
 k-point 19 :   0.4375 0.4375 0.0000  plane waves:   12200
 k-point 20 :  -0.4375 0.4375 0.0000  plane waves:   12214

 maximum and minimum number of plane-waves per node :     12329    12200

 maximum number of plane-waves:     12329
 maximum index in each direction: 
   IXMAX=    8   IYMAX=    8   IZMAX=   46
   IXMIN=   -8   IYMIN=   -8   IZMIN=  -46


 serial   3D FFT for wavefunctions
 parallel 3D FFT for charge:
    minimum data exchange during FFTs selected (reduces bandwidth)


 total amount of memory used by VASP MPI-rank0   201964. kBytes
=======================================================================

   base      :      30000. kBytes
   nonl-proj :     145466. kBytes
   fftplans  :       2015. kBytes
   grid      :       8030. kBytes
   one-center:        264. kBytes
   wavefun   :      16189. kBytes
 
     INWAV:  cpu time    0.0000: real time    0.0000
 Broyden mixing: mesh for mixing (old mesh)
   NGX = 17   NGY = 17   NGZ = 93
  (NGX  = 56   NGY  = 56   NGZ  =288)
  gives a total of  26877 points

 initial charge density was supplied:
 charge density of overlapping atoms calculated
 number of electron     161.0000000 magnetization 
 keeping initial charge density in first step


--------------------------------------------------------------------------------------------------------


 Maximum index for augmentation-charges          728 (set IRDMAX)


--------------------------------------------------------------------------------------------------------


 First call to EWALD:  gamma=   0.189
 Maximum number of real-space cells 5x 5x 1
 Maximum number of reciprocal cells 2x 2x 8

    FEWALD:  cpu time    0.0015: real time    0.0015


--------------------------------------- Iteration      1(   1)  ---------------------------------------


    POTLOK:  cpu time    0.0202: real time    0.0268
    SETDIJ:  cpu time    0.0023: real time    0.0024
     EDDAV:  cpu time    3.5398: real time    3.5407
       DOS:  cpu time    0.0008: real time    0.0008
    --------------------------------------------
      LOOP:  cpu time    3.5630: real time    3.5707

 eigenvalue-minimisations  :  3840
 total energy-change (2. order) : 0.9823237E+03  (-0.5571364E+04)
 number of electron     161.0000000 magnetization 
 augmentation part      161.0000000 magnetization 

 Free energy of the ion-electron system (eV)
  ---------------------------------------------------
  alpha Z        PSCENC =       305.89839443
  Ewald energy   TEWEN  =     98128.32084099
  -Hartree energ DENC   =   -110215.09776935
  -exchange      EXHF   =         0.00000000
  -V(xc)+E(xc)   XCENC  =        48.82015051
  PAW double counting   =     11173.35063782   -10713.98924482
  entropy T*S    EENTRO =         0.00076862
  eigenvalues    EBANDS =       548.85756927
  atomic energy  EATOM  =     11706.16234457
  Solvation  Ediel_sol  =         0.00000000
  ---------------------------------------------------
  free energy    TOTEN  =       982.32369203 eV

  energy without entropy =      982.32292341  energy(sigma->0) =      982.32343582


--------------------------------------------------------------------------------------------------------




--------------------------------------- Iteration      1(   2)  ---------------------------------------


     EDDAV:  cpu time    5.0988: real time    5.0996
       DOS:  cpu time    0.0009: real time    0.0009
    --------------------------------------------
      LOOP:  cpu time    5.0998: real time    5.1006

 eigenvalue-minimisations  :  5616
 total energy-change (2. order) :-0.1025624E+04  (-0.9987418E+03)
 number of electron     161.0000000 magnetization 
 augmentation part      161.0000000 magnetization 

 Free energy of the ion-electron system (eV)
  ---------------------------------------------------
  alpha Z        PSCENC =       305.89839443
  Ewald energy   TEWEN  =     98128.32084099
  -Hartree energ DENC   =   -110215.09776935
  -exchange      EXHF   =         0.00000000
  -V(xc)+E(xc)   XCENC  =        48.82015051
  PAW double counting   =     11173.35063782   -10713.98924482
  entropy T*S    EENTRO =        -0.00249680
  eigenvalues    EBANDS =      -476.76334491
  atomic energy  EATOM  =     11706.16234457
  Solvation  Ediel_sol  =         0.00000000
  ---------------------------------------------------
  free energy    TOTEN  =       -43.30048756 eV

  energy without entropy =      -43.29799077  energy(sigma->0) =      -43.29965530


--------------------------------------------------------------------------------------------------------




--------------------------------------- Iteration      1(   3)  ---------------------------------------


     EDDAV:  cpu time    4.4669: real time    4.4675
       DOS:  cpu time    0.0010: real time    0.0010
    --------------------------------------------
      LOOP:  cpu time    4.4679: real time    4.4684

 eigenvalue-minimisations  :  4800
 total energy-change (2. order) :-0.5849298E+02  (-0.5684738E+02)
 number of electron     161.0000000 magnetization 
 augmentation part      161.0000000 magnetization 

 Free energy of the ion-electron system (eV)
  ---------------------------------------------------
  alpha Z        PSCENC =       305.89839443
  Ewald energy   TEWEN  =     98128.32084099
  -Hartree energ DENC   =   -110215.09776935
  -exchange      EXHF   =         0.00000000
  -V(xc)+E(xc)   XCENC  =        48.82015051
  PAW double counting   =     11173.35063782   -10713.98924482
  entropy T*S    EENTRO =         0.00646707
  eigenvalues    EBANDS =      -535.26528741
  atomic energy  EATOM  =     11706.16234457
  Solvation  Ediel_sol  =         0.00000000
  ---------------------------------------------------
  free energy    TOTEN  =      -101.79346620 eV

  energy without entropy =     -101.79993327  energy(sigma->0) =     -101.79562189


--------------------------------------------------------------------------------------------------------




--------------------------------------- Iteration      1(   4)  ---------------------------------------


     EDDAV:  cpu time    4.9287: real time    4.9300
       DOS:  cpu time    0.0007: real time    0.0007
    --------------------------------------------
      LOOP:  cpu time    4.9294: real time    4.9307

 eigenvalue-minimisations  :  5520
 total energy-change (2. order) :-0.1235398E+01  (-0.1231474E+01)
 number of electron     161.0000000 magnetization 
 augmentation part      161.0000000 magnetization 

 Free energy of the ion-electron system (eV)
  ---------------------------------------------------
  alpha Z        PSCENC =       305.89839443
  Ewald energy   TEWEN  =     98128.32084099
  -Hartree energ DENC   =   -110215.09776935
  -exchange      EXHF   =         0.00000000
  -V(xc)+E(xc)   XCENC  =        48.82015051
  PAW double counting   =     11173.35063782   -10713.98924482
  entropy T*S    EENTRO =         0.00401218
  eigenvalues    EBANDS =      -536.49823097
  atomic energy  EATOM  =     11706.16234457
  Solvation  Ediel_sol  =         0.00000000
  ---------------------------------------------------
  free energy    TOTEN  =      -103.02886465 eV

  energy without entropy =     -103.03287682  energy(sigma->0) =     -103.03020204


--------------------------------------------------------------------------------------------------------




--------------------------------------- Iteration      1(   5)  ---------------------------------------


     EDDAV:  cpu time    5.1622: real time    5.1624
       DOS:  cpu time    0.0010: real time    0.0010
    CHARGE:  cpu time    0.1315: real time    0.1315
    MIXING:  cpu time    0.0008: real time    0.0009
    --------------------------------------------
      LOOP:  cpu time    5.2955: real time    5.2958

 eigenvalue-minimisations  :  5760
 total energy-change (2. order) :-0.2715303E-01  (-0.2713928E-01)
 number of electron     161.0000084 magnetization 
 augmentation part       46.8703370 magnetization 

 Broyden mixing:
  rms(total) = 0.41884E+01    rms(broyden)= 0.41882E+01
  rms(prec ) = 0.42208E+01
  weight for this iteration     100.00

 Free energy of the ion-electron system (eV)
  ---------------------------------------------------
  alpha Z        PSCENC =       305.89839443
  Ewald energy   TEWEN  =     98128.32084099
  -Hartree energ DENC   =   -110215.09776935
  -exchange      EXHF   =         0.00000000
  -V(xc)+E(xc)   XCENC  =        48.82015051
  PAW double counting   =     11173.35063782   -10713.98924482
  entropy T*S    EENTRO =         0.00397255
  eigenvalues    EBANDS =      -536.52534438
  atomic energy  EATOM  =     11706.16234457
  Solvation  Ediel_sol  =         0.00000000
  ---------------------------------------------------
  free energy    TOTEN  =      -103.05601768 eV

  energy without entropy =     -103.05999024  energy(sigma->0) =     -103.05734187


--------------------------------------------------------------------------------------------------------




--------------------------------------- Iteration      1(   6)  ---------------------------------------


    POTLOK:  cpu time    0.0171: real time    0.0171
    SETDIJ:  cpu time    0.0021: real time    0.0021
     EDDAV:  cpu time    4.2058: real time    4.2062
       DOS:  cpu time    0.0007: real time    0.0007
    CHARGE:  cpu time    0.1316: real time    0.1316
    MIXING:  cpu time    0.0008: real time    0.0008
    --------------------------------------------
      LOOP:  cpu time    4.3582: real time    4.3586

 eigenvalue-minimisations  :  4656
 total energy-change (2. order) : 0.3583322E+01  (-0.3908715E+01)
 number of electron     161.0000077 magnetization 
 augmentation part       49.6186904 magnetization 

 Broyden mixing:
  rms(total) = 0.32093E+01    rms(broyden)= 0.32092E+01
  rms(prec ) = 0.34338E+01
  weight for this iteration     100.00

 eigenvalues of (default mixing * dielectric matrix)
  average eigenvalue GAMMA=   1.0650
  1.0650

 Free energy of the ion-electron system (eV)
  ---------------------------------------------------
  alpha Z        PSCENC =       305.89839443
  Ewald energy   TEWEN  =     98128.32084099
  -Hartree energ DENC   =   -110014.95281422
  -exchange      EXHF   =         0.00000000
  -V(xc)+E(xc)   XCENC  =        44.79824674
  PAW double counting   =     12334.65306604   -11898.83253034
  entropy T*S    EENTRO =         0.00527830
  eigenvalues    EBANDS =      -705.52552192
  atomic energy  EATOM  =     11706.16234457
  Solvation  Ediel_sol  =         0.00000000
  ---------------------------------------------------
  free energy    TOTEN  =       -99.47269542 eV

  energy without entropy =      -99.47797371  energy(sigma->0) =      -99.47445485


--------------------------------------------------------------------------------------------------------




--------------------------------------- Iteration      1(   7)  ---------------------------------------


    POTLOK:  cpu time    0.0184: real time    0.0236
    SETDIJ:  cpu time    0.0023: real time    0.0023
     EDDAV:  cpu time    5.0877: real time    5.0880
       DOS:  cpu time    0.0007: real time    0.0007
    CHARGE:  cpu time    0.1307: real time    0.1307
    MIXING:  cpu time    0.0006: real time    0.0006
    --------------------------------------------
      LOOP:  cpu time    5.2404: real time    5.2459

 eigenvalue-minimisations  :  5736
 total energy-change (2. order) :-0.4186019E+02  (-0.4956460E+02)
 number of electron     161.0000084 magnetization 
 augmentation part       47.9396424 magnetization 

 Broyden mixing:
  rms(total) = 0.54417E+01    rms(broyden)= 0.54416E+01
  rms(prec ) = 0.65398E+01
  weight for this iteration     100.00

 eigenvalues of (default mixing * dielectric matrix)
  average eigenvalue GAMMA=   0.9321
  1.6780  0.1862

 Free energy of the ion-electron system (eV)
  ---------------------------------------------------
  alpha Z        PSCENC =       305.89839443
  Ewald energy   TEWEN  =     98128.32084099
  -Hartree energ DENC   =   -110150.18097232
  -exchange      EXHF   =         0.00000000
  -V(xc)+E(xc)   XCENC  =        43.65840209
  PAW double counting   =     13010.49883240   -12582.81187362
  entropy T*S    EENTRO =         0.00065117
  eigenvalues    EBANDS =      -602.87950730
  atomic energy  EATOM  =     11706.16234457
  Solvation  Ediel_sol  =         0.00000000
  ---------------------------------------------------
  free energy    TOTEN  =      -141.33288758 eV

  energy without entropy =     -141.33353876  energy(sigma->0) =     -141.33310464


--------------------------------------------------------------------------------------------------------




--------------------------------------- Iteration      1(   8)  ---------------------------------------


    POTLOK:  cpu time    0.0164: real time    0.0164
    SETDIJ:  cpu time    0.0021: real time    0.0021
     EDDAV:  cpu time    5.0624: real time    5.0627
       DOS:  cpu time    0.0009: real time    0.0009
    CHARGE:  cpu time    0.1306: real time    0.1306
    MIXING:  cpu time    0.0006: real time    0.0006
    --------------------------------------------
      LOOP:  cpu time    5.2130: real time    5.2133

 eigenvalue-minimisations  :  5664
 total energy-change (2. order) : 0.2145722E+02  (-0.1769664E+02)
 number of electron     161.0000095 magnetization 
 augmentation part       49.1584735 magnetization 

 Broyden mixing:
  rms(total) = 0.40472E+01    rms(broyden)= 0.40470E+01
  rms(prec ) = 0.45322E+01
  weight for this iteration     100.00

 eigenvalues of (default mixing * dielectric matrix)
  average eigenvalue GAMMA=   0.8472
  2.0536  0.2440  0.2440

 Free energy of the ion-electron system (eV)
  ---------------------------------------------------
  alpha Z        PSCENC =       305.89839443
  Ewald energy   TEWEN  =     98128.32084099
  -Hartree energ DENC   =   -110136.84823667
  -exchange      EXHF   =         0.00000000
  -V(xc)+E(xc)   XCENC  =        42.84774254
  PAW double counting   =     13732.38945814   -13314.10334061
  entropy T*S    EENTRO =        -0.00251997
  eigenvalues    EBANDS =      -584.54035534
  atomic energy  EATOM  =     11706.16234457
  Solvation  Ediel_sol  =         0.00000000
  ---------------------------------------------------
  free energy    TOTEN  =      -119.87567192 eV

  energy without entropy =     -119.87315195  energy(sigma->0) =     -119.87483193


--------------------------------------------------------------------------------------------------------




--------------------------------------- Iteration      1(   9)  ---------------------------------------


    POTLOK:  cpu time    0.0168: real time    0.0168
    SETDIJ:  cpu time    0.0021: real time    0.0021
     EDDAV:  cpu time    5.0439: real time    5.0444
       DOS:  cpu time    0.0008: real time    0.0008
    CHARGE:  cpu time    0.1316: real time    0.1316
    MIXING:  cpu time    0.0007: real time    0.0007
    --------------------------------------------
      LOOP:  cpu time    5.1959: real time    5.1964

 eigenvalue-minimisations  :  5664
 total energy-change (2. order) : 0.5755625E+01  (-0.1724175E+02)
 number of electron     161.0000088 magnetization 
 augmentation part       49.8263105 magnetization 

 Broyden mixing:
  rms(total) = 0.30523E+01    rms(broyden)= 0.30522E+01
  rms(prec ) = 0.39837E+01
  weight for this iteration     100.00

 eigenvalues of (default mixing * dielectric matrix)
  average eigenvalue GAMMA=   0.8301
  2.1680  0.6282  0.3609  0.1632

 Free energy of the ion-electron system (eV)
  ---------------------------------------------------
  alpha Z        PSCENC =       305.89839443
  Ewald energy   TEWEN  =     98128.32084099
  -Hartree energ DENC   =   -110013.16071765
  -exchange      EXHF   =         0.00000000
  -V(xc)+E(xc)   XCENC  =        42.51444795
  PAW double counting   =     14182.61572433   -13769.90135245
  entropy T*S    EENTRO =         0.00738342
  eigenvalues    EBANDS =      -696.57711201
  atomic energy  EATOM  =     11706.16234457
  Solvation  Ediel_sol  =         0.00000000
  ---------------------------------------------------
  free energy    TOTEN  =      -114.12004642 eV

  energy without entropy =     -114.12742984  energy(sigma->0) =     -114.12250756


--------------------------------------------------------------------------------------------------------




--------------------------------------- Iteration      1(  10)  ---------------------------------------


    POTLOK:  cpu time    0.0186: real time    0.0188
    SETDIJ:  cpu time    0.0023: real time    0.0023
     EDDAV:  cpu time    4.4122: real time    4.4124
       DOS:  cpu time    0.0007: real time    0.0007
    CHARGE:  cpu time    0.1306: real time    0.1306
    MIXING:  cpu time    0.0007: real time    0.0007
    --------------------------------------------
      LOOP:  cpu time    4.5651: real time    4.5655

 eigenvalue-minimisations  :  4872
 total energy-change (2. order) : 0.1597533E+02  (-0.5854611E+01)
 number of electron     161.0000098 magnetization 
 augmentation part       50.3499150 magnetization 

 Broyden mixing:
  rms(total) = 0.13714E+01    rms(broyden)= 0.13713E+01
  rms(prec ) = 0.15237E+01
  weight for this iteration     100.00

 eigenvalues of (default mixing * dielectric matrix)
  average eigenvalue GAMMA=   0.7337
  2.1390  0.5388  0.5388  0.2849  0.1669

 Free energy of the ion-electron system (eV)
  ---------------------------------------------------
  alpha Z        PSCENC =       305.89839443
  Ewald energy   TEWEN  =     98128.32084099
  -Hartree energ DENC   =   -110031.39166031
  -exchange      EXHF   =         0.00000000
  -V(xc)+E(xc)   XCENC  =        42.84175741
  PAW double counting   =     14395.96162512   -13983.47342696
  entropy T*S    EENTRO =         0.02799904
  eigenvalues    EBANDS =      -662.49259313
  atomic energy  EATOM  =     11706.16234457
  Solvation  Ediel_sol  =         0.00000000
  ---------------------------------------------------
  free energy    TOTEN  =       -98.14471883 eV

  energy without entropy =      -98.17271787  energy(sigma->0) =      -98.15405184


--------------------------------------------------------------------------------------------------------




--------------------------------------- Iteration      1(  11)  ---------------------------------------


    POTLOK:  cpu time    0.0169: real time    0.0169
    SETDIJ:  cpu time    0.0021: real time    0.0021
     EDDAV:  cpu time    4.7102: real time    4.7104
       DOS:  cpu time    0.0010: real time    0.0010
    CHARGE:  cpu time    0.1305: real time    0.1305
    MIXING:  cpu time    0.0007: real time    0.0007
    --------------------------------------------
      LOOP:  cpu time    4.8614: real time    4.8616

 eigenvalue-minimisations  :  5280
 total energy-change (2. order) : 0.1303727E+01  (-0.2150038E+01)
 number of electron     161.0000090 magnetization 
 augmentation part       50.2812323 magnetization 

 Broyden mixing:
  rms(total) = 0.68095E+00    rms(broyden)= 0.68086E+00
  rms(prec ) = 0.87030E+00
  weight for this iteration     100.00

 eigenvalues of (default mixing * dielectric matrix)
  average eigenvalue GAMMA=   0.6989
  1.9545  0.7202  0.7202  0.3902  0.1653  0.2432

 Free energy of the ion-electron system (eV)
  ---------------------------------------------------
  alpha Z        PSCENC =       305.89839443
  Ewald energy   TEWEN  =     98128.32084099
  -Hartree energ DENC   =   -110021.76785097
  -exchange      EXHF   =         0.00000000
  -V(xc)+E(xc)   XCENC  =        43.07163341
  PAW double counting   =     14401.47283339   -13988.35189713
  entropy T*S    EENTRO =        -0.00679164
  eigenvalues    EBANDS =      -671.64049846
  atomic energy  EATOM  =     11706.16234457
  Solvation  Ediel_sol  =         0.00000000
  ---------------------------------------------------
  free energy    TOTEN  =       -96.84099142 eV

  energy without entropy =      -96.83419977  energy(sigma->0) =      -96.83872753


--------------------------------------------------------------------------------------------------------




--------------------------------------- Iteration      1(  12)  ---------------------------------------


    POTLOK:  cpu time    0.0169: real time    0.0169
    SETDIJ:  cpu time    0.0021: real time    0.0021
     EDDAV:  cpu time    4.6241: real time    4.6243
       DOS:  cpu time    0.0010: real time    0.0009
    CHARGE:  cpu time    0.1305: real time    0.1305
    MIXING:  cpu time    0.0008: real time    0.0008
    --------------------------------------------
      LOOP:  cpu time    4.7752: real time    4.7755

 eigenvalue-minimisations  :  5160
 total energy-change (2. order) :-0.2284161E-01  (-0.1156231E+01)
 number of electron     161.0000081 magnetization 
 augmentation part       50.1551863 magnetization 

 Broyden mixing:
  rms(total) = 0.95462E+00    rms(broyden)= 0.95451E+00
  rms(prec ) = 0.11816E+01
  weight for this iteration     100.00

 eigenvalues of (default mixing * dielectric matrix)
  average eigenvalue GAMMA=   0.6655
  2.0452  0.7460  0.6012  0.6012  0.1613  0.2519  0.2519

 Free energy of the ion-electron system (eV)
  ---------------------------------------------------
  alpha Z        PSCENC =       305.89839443
  Ewald energy   TEWEN  =     98128.32084099
  -Hartree energ DENC   =   -110027.95957605
  -exchange      EXHF   =         0.00000000
  -V(xc)+E(xc)   XCENC  =        43.24438444
  PAW double counting   =     14327.02925581   -13912.66938265
  entropy T*S    EENTRO =        -0.02864139
  eigenvalues    EBANDS =      -666.86145318
  atomic energy  EATOM  =     11706.16234457
  Solvation  Ediel_sol  =         0.00000000
  ---------------------------------------------------
  free energy    TOTEN  =       -96.86383302 eV

  energy without entropy =      -96.83519164  energy(sigma->0) =      -96.85428590


--------------------------------------------------------------------------------------------------------




--------------------------------------- Iteration      1(  13)  ---------------------------------------


    POTLOK:  cpu time    0.0176: real time    0.0202
    SETDIJ:  cpu time    0.0023: real time    0.0023
     EDDAV:  cpu time    4.6745: real time    4.6749
       DOS:  cpu time    0.0007: real time    0.0007
    CHARGE:  cpu time    0.1308: real time    0.1308
    MIXING:  cpu time    0.0008: real time    0.0008
    --------------------------------------------
      LOOP:  cpu time    4.8269: real time    4.8297

 eigenvalue-minimisations  :  5208
 total energy-change (2. order) : 0.5413321E+00  (-0.3686268E+00)
 number of electron     161.0000089 magnetization 
 augmentation part       50.1200151 magnetization 

 Broyden mixing:
  rms(total) = 0.34964E+00    rms(broyden)= 0.34957E+00
  rms(prec ) = 0.37305E+00
  weight for this iteration     100.00

 eigenvalues of (default mixing * dielectric matrix)
  average eigenvalue GAMMA=   0.7473
  1.9641  1.0980  1.0980  0.5770  0.5770  0.1622  0.2512  0.2512

 Free energy of the ion-electron system (eV)
  ---------------------------------------------------
  alpha Z        PSCENC =       305.89839443
  Ewald energy   TEWEN  =     98128.32084099
  -Hartree energ DENC   =   -110034.28606133
  -exchange      EXHF   =         0.00000000
  -V(xc)+E(xc)   XCENC  =        43.19464677
  PAW double counting   =     14358.36942585   -13944.57398340
  entropy T*S    EENTRO =        -0.01367015
  eigenvalues    EBANDS =      -659.39443868
  atomic energy  EATOM  =     11706.16234457
  Solvation  Ediel_sol  =         0.00000000
  ---------------------------------------------------
  free energy    TOTEN  =       -96.32250094 eV

  energy without entropy =      -96.30883079  energy(sigma->0) =      -96.31794422


--------------------------------------------------------------------------------------------------------




--------------------------------------- Iteration      1(  14)  ---------------------------------------


    POTLOK:  cpu time    0.0175: real time    0.0188
    SETDIJ:  cpu time    0.0021: real time    0.0021
     EDDAV:  cpu time    4.7531: real time    4.7534
       DOS:  cpu time    0.0009: real time    0.0009
    CHARGE:  cpu time    0.1305: real time    0.1305
    MIXING:  cpu time    0.0009: real time    0.0009
    --------------------------------------------
      LOOP:  cpu time    4.9050: real time    4.9066

 eigenvalue-minimisations  :  5304
 total energy-change (2. order) :-0.3022422E+00  (-0.3126292E+00)
 number of electron     161.0000090 magnetization 
 augmentation part       50.1332880 magnetization 

 Broyden mixing:
  rms(total) = 0.59423E+00    rms(broyden)= 0.59419E+00
  rms(prec ) = 0.75552E+00
  weight for this iteration     100.00

 eigenvalues of (default mixing * dielectric matrix)
  average eigenvalue GAMMA=   0.7299
  1.8450  1.3627  1.3627  0.5587  0.5587  0.1626  0.2535  0.2535  0.2119

 Free energy of the ion-electron system (eV)
  ---------------------------------------------------
  alpha Z        PSCENC =       305.89839443
  Ewald energy   TEWEN  =     98128.32084099
  -Hartree energ DENC   =   -110036.46923014
  -exchange      EXHF   =         0.00000000
  -V(xc)+E(xc)   XCENC  =        43.18336649
  PAW double counting   =     14275.99236777   -13862.15615705
  entropy T*S    EENTRO =         0.02805557
  eigenvalues    EBANDS =      -657.58472578
  atomic energy  EATOM  =     11706.16234457
  Solvation  Ediel_sol  =         0.00000000
  ---------------------------------------------------
  free energy    TOTEN  =       -96.62474315 eV

  energy without entropy =      -96.65279872  energy(sigma->0) =      -96.63409500


--------------------------------------------------------------------------------------------------------




--------------------------------------- Iteration      1(  15)  ---------------------------------------


    POTLOK:  cpu time    0.0168: real time    0.0168
    SETDIJ:  cpu time    0.0021: real time    0.0021
     EDDAV:  cpu time    4.0712: real time    4.0714
       DOS:  cpu time    0.0008: real time    0.0008
    CHARGE:  cpu time    0.1313: real time    0.1314
    MIXING:  cpu time    0.0011: real time    0.0011
    --------------------------------------------
      LOOP:  cpu time    4.2232: real time    4.2235

 eigenvalue-minimisations  :  4512
 total energy-change (2. order) : 0.1253417E+00  (-0.1472442E-01)
 number of electron     161.0000090 magnetization 
 augmentation part       50.1087529 magnetization 

 Broyden mixing:
  rms(total) = 0.47900E+00    rms(broyden)= 0.47900E+00
  rms(prec ) = 0.62380E+00
  weight for this iteration     100.00

 eigenvalues of (default mixing * dielectric matrix)
  average eigenvalue GAMMA=   0.8225
  2.1319  1.6188  1.6188  0.5865  0.5865  0.6576  0.3579  0.1623  0.2525  0.2525

 Free energy of the ion-electron system (eV)
  ---------------------------------------------------
  alpha Z        PSCENC =       305.89839443
  Ewald energy   TEWEN  =     98128.32084099
  -Hartree energ DENC   =   -110038.80493933
  -exchange      EXHF   =         0.00000000
  -V(xc)+E(xc)   XCENC  =        43.24405524
  PAW double counting   =     14240.19773920   -13826.06461149
  entropy T*S    EENTRO =         0.01957208
  eigenvalues    EBANDS =      -655.47279717
  atomic energy  EATOM  =     11706.16234457
  Solvation  Ediel_sol  =         0.00000000
  ---------------------------------------------------
  free energy    TOTEN  =       -96.49940148 eV

  energy without entropy =      -96.51897356  energy(sigma->0) =      -96.50592551


--------------------------------------------------------------------------------------------------------




--------------------------------------- Iteration      1(  16)  ---------------------------------------


    POTLOK:  cpu time    0.0181: real time    0.0183
    SETDIJ:  cpu time    0.0021: real time    0.0021
     EDDAV:  cpu time    4.3577: real time    4.3579
       DOS:  cpu time    0.0008: real time    0.0007
    CHARGE:  cpu time    0.1309: real time    0.1309
    MIXING:  cpu time    0.0011: real time    0.0011
    --------------------------------------------
      LOOP:  cpu time    4.5107: real time    4.5110

 eigenvalue-minimisations  :  4848
 total energy-change (2. order) : 0.2150992E+00  (-0.8729331E-01)
 number of electron     161.0000087 magnetization 
 augmentation part       50.0754531 magnetization 

 Broyden mixing:
  rms(total) = 0.14472E+00    rms(broyden)= 0.14466E+00
  rms(prec ) = 0.16701E+00
  weight for this iteration     100.00

 eigenvalues of (default mixing * dielectric matrix)
  average eigenvalue GAMMA=   0.8350
  2.0811  1.6896  1.6896  0.6349  0.6349  0.7277  0.7277  0.1623  0.3322  0.2527
  0.2527

 Free energy of the ion-electron system (eV)
  ---------------------------------------------------
  alpha Z        PSCENC =       305.89839443
  Ewald energy   TEWEN  =     98128.32084099
  -Hartree energ DENC   =   -110045.92741044
  -exchange      EXHF   =         0.00000000
  -V(xc)+E(xc)   XCENC  =        43.33678760
  PAW double counting   =     14191.96075913   -13777.65611550
  entropy T*S    EENTRO =        -0.00194853
  eigenvalues    EBANDS =      -648.37795458
  atomic energy  EATOM  =     11706.16234457
  Solvation  Ediel_sol  =         0.00000000
  ---------------------------------------------------
  free energy    TOTEN  =       -96.28430232 eV

  energy without entropy =      -96.28235379  energy(sigma->0) =      -96.28365281


--------------------------------------------------------------------------------------------------------




--------------------------------------- Iteration      1(  17)  ---------------------------------------


    POTLOK:  cpu time    0.0170: real time    0.0170
    SETDIJ:  cpu time    0.0021: real time    0.0021
     EDDAV:  cpu time    4.5338: real time    4.5340
       DOS:  cpu time    0.0010: real time    0.0010
    CHARGE:  cpu time    0.1309: real time    0.1309
    MIXING:  cpu time    0.0011: real time    0.0011
    --------------------------------------------
      LOOP:  cpu time    4.6860: real time    4.6861

 eigenvalue-minimisations  :  5064
 total energy-change (2. order) : 0.1458915E-01  (-0.1000929E-01)
 number of electron     161.0000087 magnetization 
 augmentation part       50.0626080 magnetization 

 Broyden mixing:
  rms(total) = 0.79349E-01    rms(broyden)= 0.79336E-01
  rms(prec ) = 0.85942E-01
  weight for this iteration     100.00

 eigenvalues of (default mixing * dielectric matrix)
  average eigenvalue GAMMA=   0.7950
  2.2983  1.6144  1.6144  0.7382  0.7382  0.6280  0.6280  0.1623  0.3396  0.2535
  0.2535  0.2717

 Free energy of the ion-electron system (eV)
  ---------------------------------------------------
  alpha Z        PSCENC =       305.89839443
  Ewald energy   TEWEN  =     98128.32084099
  -Hartree energ DENC   =   -110048.43017624
  -exchange      EXHF   =         0.00000000
  -V(xc)+E(xc)   XCENC  =        43.37867648
  PAW double counting   =     14185.15535123   -13770.72617089
  entropy T*S    EENTRO =        -0.00611522
  eigenvalues    EBANDS =      -646.02285853
  atomic energy  EATOM  =     11706.16234457
  Solvation  Ediel_sol  =         0.00000000
  ---------------------------------------------------
  free energy    TOTEN  =       -96.26971317 eV

  energy without entropy =      -96.26359794  energy(sigma->0) =      -96.26767476


--------------------------------------------------------------------------------------------------------




--------------------------------------- Iteration      1(  18)  ---------------------------------------


    POTLOK:  cpu time    0.0175: real time    0.0175
    SETDIJ:  cpu time    0.0021: real time    0.0021
     EDDAV:  cpu time    4.8699: real time    4.8701
       DOS:  cpu time    0.0009: real time    0.0009
    CHARGE:  cpu time    0.1310: real time    0.1310
    MIXING:  cpu time    0.0011: real time    0.0011
    --------------------------------------------
      LOOP:  cpu time    5.0226: real time    5.0228

 eigenvalue-minimisations  :  5376
 total energy-change (2. order) : 0.2310034E-02  (-0.1163997E-02)
 number of electron     161.0000087 magnetization 
 augmentation part       50.0590543 magnetization 

 Broyden mixing:
  rms(total) = 0.47221E-01    rms(broyden)= 0.47218E-01
  rms(prec ) = 0.48241E-01
  weight for this iteration     100.00

 eigenvalues of (default mixing * dielectric matrix)
  average eigenvalue GAMMA=   0.8184
  2.3974  1.6253  1.6253  1.0685  0.6048  0.6048  0.6789  0.6789  0.1623  0.2527
  0.2527  0.3323  0.3554

 Free energy of the ion-electron system (eV)
  ---------------------------------------------------
  alpha Z        PSCENC =       305.89839443
  Ewald energy   TEWEN  =     98128.32084099
  -Hartree energ DENC   =   -110049.35062241
  -exchange      EXHF   =         0.00000000
  -V(xc)+E(xc)   XCENC  =        43.38445485
  PAW double counting   =     14191.60347416   -13777.18161236
  entropy T*S    EENTRO =        -0.00907096
  eigenvalues    EBANDS =      -645.09560640
  atomic energy  EATOM  =     11706.16234457
  Solvation  Ediel_sol  =         0.00000000
  ---------------------------------------------------
  free energy    TOTEN  =       -96.26740313 eV

  energy without entropy =      -96.25833217  energy(sigma->0) =      -96.26437948


--------------------------------------------------------------------------------------------------------




--------------------------------------- Iteration      1(  19)  ---------------------------------------


    POTLOK:  cpu time    0.0170: real time    0.0170
    SETDIJ:  cpu time    0.0021: real time    0.0021
     EDDAV:  cpu time    4.9445: real time    4.9448
       DOS:  cpu time    0.0007: real time    0.0007
    CHARGE:  cpu time    0.1311: real time    0.1311
    MIXING:  cpu time    0.0012: real time    0.0012
    --------------------------------------------
      LOOP:  cpu time    5.0967: real time    5.0970

 eigenvalue-minimisations  :  5520
 total energy-change (2. order) : 0.2940571E-03  (-0.1271767E-03)
 number of electron     161.0000087 magnetization 
 augmentation part       50.0545228 magnetization 

 Broyden mixing:
  rms(total) = 0.31317E-01    rms(broyden)= 0.31316E-01
  rms(prec ) = 0.32067E-01
  weight for this iteration     100.00

 eigenvalues of (default mixing * dielectric matrix)
  average eigenvalue GAMMA=   0.8961
  2.5180  1.9388  1.9388  1.0959  1.0959  0.6237  0.6237  0.6952  0.6952  0.1623
  0.2528  0.2528  0.3379  0.3147

 Free energy of the ion-electron system (eV)
  ---------------------------------------------------
  alpha Z        PSCENC =       305.89839443
  Ewald energy   TEWEN  =     98128.32084099
  -Hartree energ DENC   =   -110050.63419211
  -exchange      EXHF   =         0.00000000
  -V(xc)+E(xc)   XCENC  =        43.38690399
  PAW double counting   =     14211.17653665   -13796.80206163
  entropy T*S    EENTRO =        -0.00850263
  eigenvalues    EBANDS =      -643.76737334
  atomic energy  EATOM  =     11706.16234457
  Solvation  Ediel_sol  =         0.00000000
  ---------------------------------------------------
  free energy    TOTEN  =       -96.26710907 eV

  energy without entropy =      -96.25860645  energy(sigma->0) =      -96.26427487


--------------------------------------------------------------------------------------------------------




--------------------------------------- Iteration      1(  20)  ---------------------------------------


    POTLOK:  cpu time    0.0172: real time    0.0230
    SETDIJ:  cpu time    0.0021: real time    0.0021
     EDDAV:  cpu time    4.0707: real time    4.0710
       DOS:  cpu time    0.0007: real time    0.0007
    CHARGE:  cpu time    0.1307: real time    0.1307
    MIXING:  cpu time    0.0013: real time    0.0013
    --------------------------------------------
      LOOP:  cpu time    4.2227: real time    4.2288

 eigenvalue-minimisations  :  4512
 total energy-change (2. order) : 0.2471982E-03  (-0.1096850E-03)
 number of electron     161.0000087 magnetization 
 augmentation part       50.0520198 magnetization 

 Broyden mixing:
[...]
     86      -0.7991      1.76909
     87      -0.3100     -0.02064
     88      -0.0301     -0.00003
     89       0.1169     -0.00000
     90       1.2001     -0.00000
     91       1.9569     -0.00000
     92       2.1747     -0.00000
     93       3.3356     -0.00000
     94       4.0221     -0.00000
     95       4.1247     -0.00000
     96       4.5367     -0.00000

 k-point    19 :       0.4375    0.4375    0.0000
  band No.  band energies     occupation 
      1      -8.6190      2.00000
      2      -7.9457      2.00000
      3      -7.5486      2.00000
      4      -7.1308      2.00000
      5      -6.6491      2.00000
      6      -6.5324      2.00000
      7      -6.4417      2.00000
      8      -6.4379      2.00000
      9      -6.4011      2.00000
     10      -6.3522      2.00000
     11      -6.3126      2.00000
     12      -6.1631      2.00000
     13      -6.0464      2.00000
     14      -5.9739      2.00000
     15      -5.9093      2.00000
     16      -5.8215      2.00000
     17      -5.6803      2.00000
     18      -5.5651      2.00000
     19      -5.4716      2.00000
     20      -5.4483      2.00000
     21      -5.2868      2.00000
     22      -5.2390      2.00000
     23      -5.1931      2.00000
     24      -5.0614      2.00000
     25      -5.0571      2.00000
     26      -4.9792      2.00000
     27      -4.8887      2.00000
     28      -4.8527      2.00000
     29      -4.7326      2.00000
     30      -4.5773      2.00000
     31      -4.5348      2.00000
     32      -4.5098      2.00000
     33      -4.4245      2.00000
     34      -4.4106      2.00000
     35      -4.3153      2.00000
     36      -4.1961      2.00000
     37      -4.1019      2.00000
     38      -3.9911      2.00000
     39      -3.9821      2.00000
     40      -3.8834      2.00000
     41      -3.7788      2.00000
     42      -3.7537      2.00000
     43      -3.7294      2.00000
     44      -3.6333      2.00000
     45      -3.5773      2.00000
     46      -3.5487      2.00000
     47      -3.5053      2.00000
     48      -3.4940      2.00000
     49      -3.4608      2.00000
     50      -3.4092      2.00000
     51      -3.3736      2.00000
     52      -3.3245      2.00000
     53      -3.2021      2.00000
     54      -3.0857      2.00000
     55      -2.9016      2.00000
     56      -2.8414      2.00000
     57      -2.8174      2.00000
     58      -2.7625      2.00000
     59      -2.7164      2.00000
     60      -2.6816      2.00000
     61      -2.4326      2.00000
     62      -2.4071      2.00000
     63      -2.3695      2.00000
     64      -2.3425      2.00000
     65      -2.2510      2.00000
     66      -2.1893      2.00000
     67      -2.1091      2.00000
     68      -2.0432      2.00000
     69      -2.0044      2.00000
     70      -1.9185      2.00000
     71      -1.8498      2.00000
     72      -1.8257      2.00000
     73      -1.7807      2.00000
     74      -1.6117      2.00000
     75      -1.3755      2.00002
     76      -1.3661      2.00002
     77      -1.2358      2.00086
     78      -0.9947      2.05484
     79      -0.9232      2.06890
     80      -0.7349      1.34070
     81      -0.7140      1.17074
     82      -0.6723      0.82067
     83      -0.5310      0.01334
     84      -0.4158     -0.06430
     85      -0.4086     -0.06164
     86      -0.2270     -0.00472
     87       0.7372     -0.00000
     88       1.3655     -0.00000
     89       1.3690     -0.00000
     90       1.5354     -0.00000
     91       1.7962     -0.00000
     92       1.8599     -0.00000
     93       2.4320     -0.00000
     94       2.9235     -0.00000
     95       3.0765     -0.00000
     96       3.8706     -0.00000

 k-point    20 :      -0.4375    0.4375    0.0000
  band No.  band energies     occupation 
      1      -8.2102      2.00000
      2      -8.1430      2.00000
      3      -7.2923      2.00000
      4      -7.1504      2.00000
      5      -6.6995      2.00000
      6      -6.5291      2.00000
      7      -6.4352      2.00000
      8      -6.3455      2.00000
      9      -6.2515      2.00000
     10      -6.1818      2.00000
     11      -6.1082      2.00000
     12      -6.0631      2.00000
     13      -6.0175      2.00000
     14      -5.8675      2.00000
     15      -5.8049      2.00000
     16      -5.6408      2.00000
     17      -5.5976      2.00000
     18      -5.5491      2.00000
     19      -5.4335      2.00000
     20      -5.4022      2.00000
     21      -5.2875      2.00000
     22      -5.2191      2.00000
     23      -5.1773      2.00000
     24      -5.1010      2.00000
     25      -5.0738      2.00000
     26      -5.0407      2.00000
     27      -4.9815      2.00000
     28      -4.9349      2.00000
     29      -4.7265      2.00000
     30      -4.6844      2.00000
     31      -4.5704      2.00000
     32      -4.5433      2.00000
     33      -4.4945      2.00000
     34      -4.4557      2.00000
     35      -4.3771      2.00000
     36      -4.2698      2.00000
     37      -4.2096      2.00000
     38      -4.1574      2.00000
     39      -4.0638      2.00000
     40      -4.0380      2.00000
     41      -4.0124      2.00000
     42      -3.9836      2.00000
     43      -3.8268      2.00000
     44      -3.7825      2.00000
     45      -3.6887      2.00000
     46      -3.6249      2.00000
     47      -3.5872      2.00000
     48      -3.5672      2.00000
     49      -3.4986      2.00000
     50      -3.4881      2.00000
     51      -3.4628      2.00000
     52      -3.2594      2.00000
     53      -3.2178      2.00000
     54      -3.0228      2.00000
     55      -2.8802      2.00000
     56      -2.8162      2.00000
     57      -2.7874      2.00000
     58      -2.7442      2.00000
     59      -2.6276      2.00000
     60      -2.5345      2.00000
     61      -2.4387      2.00000
     62      -2.4169      2.00000
     63      -2.3512      2.00000
     64      -2.3277      2.00000
     65      -2.2868      2.00000
     66      -2.1411      2.00000
     67      -2.1160      2.00000
     68      -2.0408      2.00000
     69      -2.0042      2.00000
     70      -1.9743      2.00000
     71      -1.8236      2.00000
     72      -1.7442      2.00000
     73      -1.6779      2.00000
     74      -1.5788      2.00000
     75      -1.4649      2.00000
     76      -1.3659      2.00002
     77      -1.2627      2.00043
     78      -1.0314      2.03811
     79      -0.9376      2.07091
     80      -0.8313      1.91131
     81      -0.7940      1.74216
     82      -0.7091      1.13047
     83      -0.5544      0.08289
     84      -0.5349      0.02307
     85      -0.3800     -0.04907
     86      -0.3026     -0.01843
     87       0.3658     -0.00000
     88       0.4956     -0.00000
     89       0.8389     -0.00000
     90       1.5281     -0.00000
     91       1.5958     -0.00000
     92       2.4967     -0.00000
     93       2.7647     -0.00000
     94       3.2395     -0.00000
     95       3.5811     -0.00000
     96       4.0106     -0.00000


--------------------------------------------------------------------------------------------------------


 soft charge-density along one line, spin component           1
         0         1         2         3         4         5         6         7         8         9
 total charge-density along one line
 
 pseudopotential strength for first ion, spin component:           1
 -8.028   0.000   0.000  -0.006   0.000  -8.175   0.000   0.000
  0.000  -7.955  -0.000   0.000  -0.006   0.000  -8.103  -0.000
  0.000  -0.000  -7.946  -0.000   0.000   0.000  -0.000  -8.095
 -0.006   0.000  -0.000  -7.955   0.000  -0.006   0.000  -0.000
  0.000  -0.006   0.000   0.000  -8.028   0.000  -0.006   0.000
 -8.175   0.000   0.000  -0.006   0.000  -8.305   0.000   0.000
  0.000  -8.103  -0.000   0.000  -0.006   0.000  -8.235  -0.000
  0.000  -0.000  -8.095  -0.000   0.000   0.000  -0.000  -8.227
 -0.006   0.000  -0.000  -8.103   0.000  -0.006   0.000  -0.000
  0.000  -0.006   0.000   0.000  -8.175   0.000  -0.006   0.000
  0.000  -0.000  -0.024  -0.000   0.000   0.000  -0.000  -0.024
  0.000  -0.000  -0.035  -0.000   0.000   0.000  -0.000  -0.035
 -0.000  -0.000   0.000  -0.000   0.000  -0.000  -0.000   0.000
 -0.000   0.000  -0.002   0.000  -0.000  -0.000   0.000  -0.002
  0.000  -0.000   0.000  -0.000  -0.000   0.000  -0.000   0.000
 -0.000   0.001   0.000  -0.000   0.000  -0.000   0.002   0.000
 -0.000   0.000  -0.001   0.000  -0.000  -0.000   0.000  -0.000
  0.000  -0.000   0.000   0.001  -0.000   0.001  -0.000   0.000
 total augmentation occupancy for first ion, spin component:           1
  4.822   0.000  -0.000  -0.067   0.000  -2.986   0.000   0.000  -0.024   0.000   0.000   0.000   0.000   0.000  -0.046  -0.000
  0.000   4.772   0.000   0.000  -0.067   0.000  -2.498   0.000  -0.000  -0.022   0.000   0.000  -0.210  -0.000  -0.000   0.011
 -0.000   0.000   5.431   0.000  -0.000   0.000   0.000  -3.240   0.000   0.000   0.840  -0.065   0.000  -0.363   0.000  -0.000
 -0.067   0.000   0.000   4.772   0.000  -0.022  -0.000   0.000  -2.498  -0.000   0.000   0.000  -0.000   0.000  -0.210   0.000
 -0.000  -0.067  -0.000  -0.000   4.822   0.000  -0.024   0.000  -0.000  -2.986  -0.000   0.000  -0.046   0.000  -0.000   0.002
 -2.986   0.000   0.000  -0.022  -0.000   3.014  -0.000  -0.000   0.092   0.000   0.000  -0.000  -0.000  -0.000   0.043   0.000
  0.000  -2.498   0.000  -0.000  -0.024  -0.000   2.184  -0.000   0.000   0.092   0.000   0.000   0.196   0.000   0.000  -0.009
  0.000   0.000  -3.240   0.000   0.000  -0.000  -0.000   2.994  -0.000  -0.000  -0.773   0.081  -0.000   0.364  -0.000   0.000
 -0.024   0.000   0.000  -2.498  -0.000   0.092   0.000  -0.000   2.184   0.000   0.000   0.000   0.000   0.000   0.196   0.000
  0.000  -0.022   0.000  -0.000  -2.986  -0.000   0.092  -0.000   0.000   3.014   0.000  -0.000   0.043  -0.000   0.000  -0.001
  0.000   0.000   0.840   0.000  -0.000   0.000   0.000  -0.773   0.000   0.000   2.534  -0.572   0.000   0.166   0.000   0.000
  0.000   0.000  -0.065   0.000   0.000  -0.000   0.000   0.081   0.000  -0.000  -0.572   0.170   0.000  -0.075   0.000  -0.000
  0.000  -0.210   0.000  -0.000  -0.046  -0.000   0.196  -0.000   0.000   0.043   0.000   0.000   0.233   0.000   0.000  -0.007
  0.000   0.000  -0.363   0.000   0.000  -0.000   0.000   0.364   0.000  -0.000   0.166  -0.075  -0.000   0.129   0.000   0.000
 -0.046  -0.000   0.000  -0.210  -0.000   0.043   0.000  -0.000   0.196   0.000   0.000   0.000   0.000  -0.000   0.233  -0.000
 -0.000   0.011  -0.000   0.000   0.002  -0.000  -0.009   0.000  -0.000  -0.001   0.000  -0.000  -0.007   0.000  -0.000   0.000
 -0.000   0.000   0.009  -0.000  -0.000   0.000  -0.000  -0.011   0.000   0.000  -0.009   0.003  -0.000  -0.004   0.000   0.000
  0.002   0.000  -0.000   0.011   0.000  -0.001  -0.000   0.000  -0.009  -0.000   0.000  -0.000  -0.000   0.000  -0.007   0.000


------------------------ aborting loop because EDIFF is reached ----------------------------------------



 DIPCOR: dipole corrections for dipol
 direction  3 min pos   283,
 dipolmoment           0.000000      0.000000     -0.037788 electrons x Angstroem
 Tr[quadrupol]      -943.087159

 energy correction for charged system         0.000000 eV
 dipol+quadrupol energy correction            0.000157 eV
 added-field ion interaction          0.000000 eV  (added to PSCEN)

 
  *************** adding dipol energy to TOTEN NOW **************** 
    CHARGE:  cpu time    0.1306: real time    0.1306
    FORLOC:  cpu time    0.0027: real time    0.0027
    FORNL :  cpu time    1.7867: real time    1.7868
    STRESS:  cpu time    3.2587: real time    3.2588
    FORCOR:  cpu time    0.0175: real time    0.0175
    FORHAR:  cpu time    0.0059: real time    0.0059
    MIXING:  cpu time    0.0022: real time    0.0022
    OFIELD:  cpu time    0.0000: real time    0.0000

  FORCE on cell =-STRESS in cart. coord.  units (eV):
  Direction    XX          YY          ZZ          XY          YZ          ZX
  --------------------------------------------------------------------------------------
  Alpha Z   305.89839   305.89839   305.89839
  Ewald  106999.29493106999.29493************     0.00000    -0.00000    -0.00000
  Hartree109347.14806109347.14806************    -0.00000     0.00000     0.00000
  E(xc)    -712.87452  -712.87454  -717.31405     0.00001    -0.00000    -0.00000
  Local  ************************221655.20889     0.00103    -0.00004    -0.00007
  n-local    95.58702    20.63443    45.25112   -22.05034    -4.31969     2.37611
  augment   835.05799   835.05889   859.85204    -0.00078     0.00001     0.00001
  Kinetic  2303.83934  2283.74745  2353.65394    -5.88429    -6.21210     3.96885
  Fock        0.00000     0.00000     0.00000     0.00000     0.00000     0.00000
  -------------------------------------------------------------------------------------
  Total     -11.56051   -11.56051    -1.69711     0.00000    -0.00000     0.00000
  in kB     -22.47464   -22.47464    -3.29933     0.00000    -0.00000     0.00000
  external pressure =      -16.08 kB  Pullay stress =        0.00 kB


 VOLUME and BASIS-vectors are now :
 -----------------------------------------------------------------------------
  energy-cutoff  :      350.00
  volume of cell :      824.13
      direct lattice vectors                 reciprocal lattice vectors
     5.557859300  0.000000000  0.000000000     0.179925390 -0.103879972  0.000000000
     2.778929650  4.813247345  0.000000000     0.000000000  0.207759944  0.000000000
     0.000000000  0.000000000 30.806959674     0.000000000  0.000000000  0.032460198

  length of vectors
     5.557859300  5.557859300 30.806959674     0.207759944  0.207759944  0.032460198


 FORCES acting on ions
    electron-ion (+dipol)            ewald-force                    non-local-force                 convergence-correction
 -----------------------------------------------------------------------------------------------
   0.784E-06 0.453E-06 0.310E+04   -.992E-12 -.522E-12 -.310E+04   0.000E+00 -.390E-17 -.435E+00   0.139E-09 0.801E-10 -.206E-01
   0.789E-06 -.281E+01 0.282E+04   -.999E-12 0.292E+01 -.282E+04   0.434E-17 -.159E-01 -.982E+00   -.135E-09 -.998E-03 -.183E-01
   -.243E+01 0.140E+01 0.282E+04   0.253E+01 -.146E+01 -.282E+04   -.138E-01 0.795E-02 -.982E+00   -.864E-03 0.499E-03 -.183E-01
   0.243E+01 0.140E+01 0.282E+04   -.253E+01 -.146E+01 -.282E+04   0.138E-01 0.795E-02 -.982E+00   0.864E-03 0.499E-03 -.183E-01
   -.103E+02 -.595E+01 0.903E+03   0.106E+02 0.612E+01 -.902E+03   -.886E-02 -.511E-02 -.497E+00   0.240E-03 0.138E-03 -.552E-01
   0.103E+02 -.595E+01 0.903E+03   -.106E+02 0.612E+01 -.902E+03   0.886E-02 -.511E-02 -.497E+00   -.240E-03 0.138E-03 -.552E-01
   0.707E-06 0.119E+02 0.903E+03   -.419E-12 -.122E+02 -.902E+03   0.000E+00 0.102E-01 -.497E+00   -.122E-09 -.277E-03 -.552E-01
   0.734E-06 0.424E-06 0.931E+03   0.351E-11 0.231E-11 -.931E+03   0.623E-17 -.922E-18 0.813E-01   0.109E-09 0.630E-10 -.556E-01
   -.665E-06 0.164E-01 -.948E+03   0.262E-11 -.398E+00 0.948E+03   0.139E-16 0.402E+00 0.180E+00   0.167E-08 0.228E-03 -.426E-01
   -.142E-01 -.820E-02 -.948E+03   0.345E+00 0.199E+00 0.948E+03   -.348E+00 -.201E+00 0.180E+00   -.198E-03 -.114E-03 -.426E-01
   0.142E-01 -.820E-02 -.948E+03   -.345E+00 0.199E+00 0.948E+03   0.348E+00 -.201E+00 0.180E+00   0.198E-03 -.114E-03 -.426E-01
   -.367E-06 -.212E-06 -.279E+04   0.148E-11 0.815E-12 0.280E+04   -.764E-17 0.564E-17 -.643E+01   0.201E-09 0.116E-09 -.619E-02
   0.361E-06 -.875E+01 -.277E+04   -.435E-11 0.889E+01 0.277E+04   0.152E-17 -.144E-03 0.114E+01   -.640E-10 -.893E-03 -.732E-02
   -.758E+01 0.438E+01 -.277E+04   0.770E+01 -.444E+01 0.277E+04   -.124E-03 0.718E-04 0.114E+01   -.774E-03 0.447E-03 -.732E-02
   0.758E+01 0.438E+01 -.277E+04   -.770E+01 -.444E+01 0.277E+04   0.124E-03 0.718E-04 0.114E+01   0.774E-03 0.447E-03 -.732E-02
   -.297E-08 -.172E-08 -.848E+03   -.241E-11 -.145E-11 0.848E+03   -.304E-17 0.000E+00 0.127E+00   0.247E-09 0.143E-09 -.383E-01
   -.736E-06 -.425E-06 -.375E+03   0.246E-13 0.811E-14 0.378E+03   0.400E-18 -.280E-19 -.310E+01   -.134E-10 -.776E-11 0.925E-03
 -----------------------------------------------------------------------------------------------
   -.107E-05 -.619E-06 0.107E+02   -.188E-14 0.111E-13 0.114E-12   0.153E-15 0.388E-17 -.102E+02   0.123E-08 0.708E-09 -.490E+00
 
 
 POSITION                                       TOTAL-FORCE (eV/Angst)
 -----------------------------------------------------------------------------------
      0.00000      0.00000     12.00000         0.000000      0.000000     -0.984891
      2.77893      0.00000     12.00000         0.000000      0.098470      0.060341
      1.38946      2.40662     12.00000         0.085278     -0.049235      0.060341
      4.16839      2.40662     12.00000        -0.085278     -0.049235      0.060341
      1.38832      0.80154     14.33833         0.289844      0.167341      0.439605
      4.16954      0.80154     14.33833        -0.289844      0.167341      0.439605
      2.77893      3.21016     14.33833        -0.000000     -0.334683      0.439605
      5.55786      3.20883     14.30267         0.000000     -0.000000     -0.153598
      5.55786      1.59830     16.63736         0.000000      0.020521      0.011530
      6.95262      4.01410     16.63736        -0.017771     -0.010260      0.011530
      4.16310      4.01410     16.63736         0.017771     -0.010260      0.011530
      0.00000      0.00000     19.07085         0.000000     -0.000000      0.037486
      5.55786      4.80856     18.94595        -0.000000      0.134750     -0.228152
      6.94326      2.40897     18.94595         0.116697     -0.067375     -0.228152
      4.17246      2.40897     18.94595        -0.116697     -0.067375     -0.228152
      2.77893      1.60442     16.63406         0.000000     -0.000000      0.237783
      0.00000      0.00000     20.62632         0.000000      0.000000      0.013249
 -----------------------------------------------------------------------------------
    total drift:                               -0.000001     -0.000001     -0.003696


--------------------------------------------------------------------------------------------------------



  FREE ENERGIE OF THE ION-ELECTRON SYSTEM (eV)
  ---------------------------------------------------
  free  energy   TOTEN  =       -96.26705214 eV

  energy  without entropy=      -96.25772003  energy(sigma->0) =      -96.26394144
 


--------------------------------------------------------------------------------------------------------


    POTLOK:  cpu time    0.0195: real time    0.0196


--------------------------------------------------------------------------------------------------------


     LOOP+:  cpu time  141.9105: real time  141.9582
    4ORBIT:  cpu time    0.0000: real time    0.0000

 total amount of memory used by VASP MPI-rank0   201964. kBytes
=======================================================================

   base      :      30000. kBytes
   nonl-proj :     145466. kBytes
   fftplans  :       2015. kBytes
   grid      :       8030. kBytes
   one-center:        264. kBytes
   wavefun   :      16189. kBytes
 
  
  
 General timing and accounting informations for this job:
 ========================================================
  
                  Total CPU time used (sec):      144.262
                            User time (sec):      143.704
                          System time (sec):        0.558
                         Elapsed time (sec):      144.665
  
                   Maximum memory used (kb):      236132.
                   Average memory used (kb):           0.
  
                          Minor page faults:        65830
                          Major page faults:            0
                 Voluntary context switches:          799
