  16  16   0   0
  0.5150799E+02  0.5557859E-09  0.5557859E-09  0.3080696E-08  0.5000000E-15
  1.000000000000000E-004
  CAR 
 unknown system                          
      9.75329632    -12.15477580  301     -0.80622074      1.00000000
    -12.155  0.0000E+00  0.0000E+00
    -12.082  0.0000E+00  0.0000E+00
    -12.009  0.0000E+00  0.0000E+00
    -11.936  0.0000E+00  0.0000E+00
    -11.863  0.0000E+00  0.0000E+00
    -11.790 -0.3775E-31 -0.2757E-32
    -11.717 -0.1237E-28 -0.9057E-30
    -11.644 -0.3093E-26 -0.2268E-27
    -11.571 -0.5911E-24 -0.4339E-25
    -11.498 -0.8630E-22 -0.6346E-23
    -11.425 -0.9624E-20 -0.7092E-21
    -11.351 -0.8194E-18 -0.6055E-19
    -11.278 -0.5163E-16 -0.3831E-17
    -11.205 -0.2545E-14 -0.1897E-15
    -11.132 -0.9561E-13 -0.7172E-14
    -11.059 -0.2732E-11 -0.2067E-12
    -10.986 -0.5930E-10 -0.4537E-11
    -10.913 -0.9752E-09 -0.7575E-10
    -10.840 -0.1212E-07 -0.9605E-09
    -10.767 -0.1132E-06 -0.9226E-08
    -10.694 -0.7892E-06 -0.6686E-07
    -10.621 -0.4058E-05 -0.3632E-06
    -10.548 -0.1503E-04 -0.1461E-05
    -10.475 -0.3807E-04 -0.4240E-05
    -10.402 -0.5597E-04 -0.8327E-05
    -10.329 -0.2127E-05 -0.8483E-05
    -10.256  0.2145E-03  0.7182E-05
    -10.183  0.6089E-03  0.5165E-04
    -10.110  0.1075E-02  0.1301E-03
    -10.037  0.1485E-02  0.2386E-03
     -9.964  0.1768E-02  0.3677E-03
     -9.891  0.1869E-02  0.5042E-03
     -9.818  0.1764E-02  0.6331E-03
     -9.745  0.1565E-02  0.7473E-03
     -9.672  0.1501E-02  0.8569E-03
     -9.599  0.1723E-02  0.9828E-03
     -9.526  0.2065E-02  0.1134E-02
     -9.453  0.2179E-02  0.1293E-02
     -9.380  0.1975E-02  0.1437E-02
     -9.307  0.1689E-02  0.1560E-02
     -9.234  0.1511E-02  0.1671E-02
     -9.161  0.1480E-02  0.1779E-02
     -9.088  0.1684E-02  0.1902E-02
     -9.015  0.2198E-02  0.2062E-02
     -8.942  0.2827E-02  0.2269E-02
     -8.869  0.3257E-02  0.2507E-02
     -8.796  0.3452E-02  0.2759E-02
     -8.723  0.3584E-02  0.3020E-02
     -8.649  0.3656E-02  0.3287E-02
     -8.576  0.3565E-02  0.3548E-02
     -8.503  0.3473E-02  0.3801E-02
     -8.430  0.3756E-02  0.4076E-02
     -8.357  0.4508E-02  0.4405E-02
     -8.284  0.5263E-02  0.4789E-02
     -8.211  0.5420E-02  0.5185E-02
     -8.138  0.4960E-02  0.5547E-02
     -8.065  0.4405E-02  0.5869E-02
     -7.992  0.4074E-02  0.6166E-02
     -7.919  0.4022E-02  0.6460E-02
     -7.846  0.4706E-02  0.6804E-02
     -7.773  0.6666E-02  0.7290E-02
     -7.700  0.9316E-02  0.7971E-02
     -7.627  0.1132E-01  0.8797E-02
     -7.554  0.1250E-01  0.9710E-02
     -7.481  0.1402E-01  0.1073E-01
     -7.408  0.1649E-01  0.1194E-01
     -7.335  0.1960E-01  0.1337E-01
     -7.262  0.2306E-01  0.1505E-01
     -7.189  0.2632E-01  0.1698E-01
     -7.116  0.2807E-01  0.1903E-01
     -7.043  0.2742E-01  0.2103E-01
     -6.970  0.2526E-01  0.2287E-01
     -6.897  0.2358E-01  0.2459E-01
     -6.824  0.2404E-01  0.2635E-01
     -6.751  0.2735E-01  0.2835E-01
     -6.678  0.3341E-01  0.3079E-01
     -6.605  0.4105E-01  0.3378E-01
     -6.532  0.4791E-01  0.3728E-01
     -6.459  0.5139E-01  0.4104E-01
     -6.386  0.5056E-01  0.4473E-01
     -6.313  0.4719E-01  0.4817E-01
     -6.240  0.4439E-01  0.5142E-01
     -6.167  0.4346E-01  0.5459E-01
     -6.094  0.4277E-01  0.5771E-01
     -6.021  0.3991E-01  0.6063E-01
     -5.947  0.3447E-01  0.6314E-01
     -5.874  0.2837E-01  0.6522E-01
     -5.801  0.2387E-01  0.6696E-01
     -5.728  0.2254E-01  0.6860E-01
     -5.655  0.2543E-01  0.7046E-01
     -5.582  0.3229E-01  0.7282E-01
     -5.509  0.4003E-01  0.7574E-01
     -5.436  0.4420E-01  0.7897E-01
     -5.363  0.4328E-01  0.8213E-01
     -5.290  0.4054E-01  0.8509E-01
     -5.217  0.4031E-01  0.8804E-01
     -5.144  0.4294E-01  0.9117E-01
     -5.071  0.4473E-01  0.9444E-01
     -4.998  0.4262E-01  0.9755E-01
     -4.925  0.3777E-01  0.1003E+00
     -4.852  0.3458E-01  0.1028E+00
     -4.779  0.3650E-01  0.1055E+00
     -4.706  0.4262E-01  0.1086E+00
     -4.633  0.4902E-01  0.1122E+00
     -4.560  0.5308E-01  0.1161E+00
     -4.487  0.5503E-01  0.1201E+00
     -4.414  0.5581E-01  0.1242E+00
     -4.341  0.5569E-01  0.1282E+00
     -4.268  0.5521E-01  0.1323E+00
     -4.195  0.5557E-01  0.1363E+00
     -4.122  0.5728E-01  0.1405E+00
     -4.049  0.5969E-01  0.1449E+00
     -3.976  0.6240E-01  0.1494E+00
     -3.903  0.6582E-01  0.1542E+00
     -3.830  0.7014E-01  0.1593E+00
     -3.757  0.7472E-01  0.1648E+00
     -3.684  0.7772E-01  0.1705E+00
     -3.611  0.7618E-01  0.1760E+00
     -3.538  0.6893E-01  0.1811E+00
     -3.465  0.5921E-01  0.1854E+00
     -3.392  0.5117E-01  0.1891E+00
     -3.319  0.4484E-01  0.1924E+00
     -3.245  0.3768E-01  0.1952E+00
     -3.172  0.3012E-01  0.1974E+00
     -3.099  0.2681E-01  0.1993E+00
     -3.026  0.3187E-01  0.2016E+00
     -2.953  0.4396E-01  0.2049E+00
     -2.880  0.5678E-01  0.2090E+00
     -2.807  0.6401E-01  0.2137E+00
     -2.734  0.6314E-01  0.2183E+00
     -2.661  0.5611E-01  0.2224E+00
     -2.588  0.4766E-01  0.2259E+00
     -2.515  0.4223E-01  0.2290E+00
     -2.442  0.4097E-01  0.2319E+00
     -2.369  0.4195E-01  0.2350E+00
     -2.296  0.4315E-01  0.2382E+00
     -2.223  0.4435E-01  0.2414E+00
     -2.150  0.4630E-01  0.2448E+00
     -2.077  0.4920E-01  0.2484E+00
     -2.004  0.5321E-01  0.2523E+00
     -1.931  0.5855E-01  0.2565E+00
     -1.858  0.6327E-01  0.2612E+00
     -1.785  0.6344E-01  0.2658E+00
     -1.712  0.5809E-01  0.2700E+00
     -1.639  0.5100E-01  0.2738E+00
     -1.566  0.4601E-01  0.2771E+00
     -1.493  0.4327E-01  0.2803E+00
     -1.420  0.4136E-01  0.2833E+00
     -1.347  0.4085E-01  0.2863E+00
     -1.274  0.4411E-01  0.2895E+00
     -1.201  0.5224E-01  0.2933E+00
     -1.128  0.6266E-01  0.2979E+00
     -1.055  0.7014E-01  0.3030E+00
     -0.982  0.7156E-01  0.3082E+00
     -0.909  0.6902E-01  0.3133E+00
     -0.836  0.6622E-01  0.3181E+00
     -0.763  0.6294E-01  0.3227E+00
     -0.690  0.5662E-01  0.3268E+00
     -0.617  0.4803E-01  0.3304E+00
     -0.543  0.4048E-01  0.3333E+00
     -0.470  0.3476E-01  0.3358E+00
     -0.397  0.2924E-01  0.3380E+00
     -0.324  0.2360E-01  0.3397E+00
     -0.251  0.1867E-01  0.3411E+00
     -0.178  0.1458E-01  0.3421E+00
     -0.105  0.1137E-01  0.3430E+00
     -0.032  0.9844E-02  0.3437E+00
      0.041  0.1001E-01  0.3444E+00
      0.114  0.1030E-01  0.3452E+00
      0.187  0.9627E-02  0.3459E+00
      0.260  0.8954E-02  0.3465E+00
      0.333  0.9339E-02  0.3472E+00
      0.406  0.9912E-02  0.3479E+00
      0.479  0.9127E-02  0.3486E+00
      0.552  0.7251E-02  0.3491E+00
      0.625  0.6306E-02  0.3496E+00
      0.698  0.7689E-02  0.3501E+00
      0.771  0.1074E-01  0.3509E+00
      0.844  0.1354E-01  0.3519E+00
      0.917  0.1445E-01  0.3530E+00
      0.990  0.1323E-01  0.3539E+00
      1.063  0.1107E-01  0.3547E+00
      1.136  0.9432E-02  0.3554E+00
      1.209  0.8612E-02  0.3561E+00
      1.282  0.8029E-02  0.3567E+00
      1.355  0.7475E-02  0.3572E+00
      1.428  0.7475E-02  0.3577E+00
      1.501  0.8373E-02  0.3584E+00
      1.574  0.9727E-02  0.3591E+00
      1.647  0.1098E-01  0.3599E+00
      1.720  0.1208E-01  0.3608E+00
      1.793  0.1273E-01  0.3617E+00
      1.866  0.1207E-01  0.3626E+00
      1.939  0.1001E-01  0.3633E+00
      2.012  0.8133E-02  0.3639E+00
      2.085  0.8196E-02  0.3645E+00
      2.158  0.1007E-01  0.3652E+00
      2.232  0.1193E-01  0.3661E+00
      2.305  0.1228E-01  0.3670E+00
      2.378  0.1139E-01  0.3678E+00
      2.451  0.1041E-01  0.3686E+00
      2.524  0.9590E-02  0.3693E+00
      2.597  0.8232E-02  0.3699E+00
      2.670  0.6341E-02  0.3703E+00
      2.743  0.5419E-02  0.3707E+00
      2.816  0.7049E-02  0.3713E+00
      2.889  0.1078E-01  0.3720E+00
      2.962  0.1388E-01  0.3731E+00
      3.035  0.1385E-01  0.3741E+00
      3.108  0.1102E-01  0.3749E+00
      3.181  0.7851E-02  0.3754E+00
      3.254  0.6287E-02  0.3759E+00
      3.327  0.6533E-02  0.3764E+00
      3.400  0.7694E-02  0.3769E+00
      3.473  0.8802E-02  0.3776E+00
      3.546  0.9420E-02  0.3783E+00
      3.619  0.9483E-02  0.3790E+00
      3.692  0.8918E-02  0.3796E+00
      3.765  0.8123E-02  0.3802E+00
      3.838  0.8134E-02  0.3808E+00
      3.911  0.9279E-02  0.3815E+00
      3.984  0.1038E-01  0.3822E+00
      4.057  0.1011E-01  0.3830E+00
      4.130  0.8484E-02  0.3836E+00
      4.203  0.6544E-02  0.3841E+00
      4.276  0.5144E-02  0.3845E+00
      4.349  0.4602E-02  0.3848E+00
      4.422  0.4982E-02  0.3852E+00
      4.495  0.5983E-02  0.3856E+00
      4.568  0.7009E-02  0.3861E+00
      4.641  0.7772E-02  0.3867E+00
      4.714  0.8410E-02  0.3873E+00
      4.787  0.9109E-02  0.3879E+00
      4.860  0.1010E-01  0.3887E+00
      4.934  0.1169E-01  0.3895E+00
      5.007  0.1397E-01  0.3906E+00
      5.080  0.1668E-01  0.3918E+00
      5.153  0.1955E-01  0.3932E+00
      5.226  0.2249E-01  0.3948E+00
      5.299  0.2515E-01  0.3967E+00
      5.372  0.2678E-01  0.3986E+00
      5.445  0.2656E-01  0.4006E+00
      5.518  0.2443E-01  0.4024E+00
      5.591  0.2130E-01  0.4039E+00
      5.664  0.1891E-01  0.4053E+00
      5.737  0.1878E-01  0.4067E+00
      5.810  0.2066E-01  0.4082E+00
      5.883  0.2246E-01  0.4098E+00
      5.956  0.2248E-01  0.4115E+00
      6.029  0.2123E-01  0.4130E+00
      6.102  0.2034E-01  0.4145E+00
      6.175  0.2044E-01  0.4160E+00
      6.248  0.2092E-01  0.4175E+00
      6.321  0.2100E-01  0.4191E+00
      6.394  0.2056E-01  0.4206E+00
      6.467  0.1992E-01  0.4220E+00
      6.540  0.1936E-01  0.4234E+00
      6.613  0.1915E-01  0.4248E+00
      6.686  0.1971E-01  0.4263E+00
      6.759  0.2110E-01  0.4278E+00
      6.832  0.2251E-01  0.4294E+00
      6.905  0.2294E-01  0.4311E+00
      6.978  0.2270E-01  0.4328E+00
      7.051  0.2311E-01  0.4345E+00
      7.124  0.2446E-01  0.4363E+00
      7.197  0.2534E-01  0.4381E+00
      7.270  0.2448E-01  0.4399E+00
      7.343  0.2240E-01  0.4415E+00
      7.416  0.2067E-01  0.4430E+00
      7.489  0.1985E-01  0.4445E+00
      7.562  0.1847E-01  0.4458E+00
      7.636  0.1491E-01  0.4469E+00
      7.709  0.9592E-02  0.4476E+00
      7.782  0.4601E-02  0.4480E+00
      7.855  0.1396E-02  0.4481E+00
      7.928 -0.2313E-04  0.4481E+00
      8.001 -0.3631E-03  0.4480E+00
      8.074 -0.2773E-03  0.4480E+00
      8.147 -0.1312E-03  0.4480E+00
      8.220 -0.4407E-04  0.4480E+00
      8.293 -0.1088E-04  0.4480E+00
      8.366 -0.2001E-05  0.4480E+00
      8.439 -0.2760E-06  0.4480E+00
      8.512 -0.2870E-07  0.4480E+00
      8.585 -0.2256E-08  0.4480E+00
      8.658 -0.1345E-09  0.4480E+00
      8.731 -0.6087E-11  0.4480E+00
      8.804 -0.2097E-12  0.4480E+00
      8.877 -0.5502E-14  0.4480E+00
      8.950 -0.1102E-15  0.4480E+00
      9.023 -0.1520E-17  0.4480E+00
      9.096  0.0000E+00  0.4480E+00
      9.169  0.0000E+00  0.4480E+00
      9.242  0.0000E+00  0.4480E+00
      9.315  0.0000E+00  0.4480E+00
      9.388  0.0000E+00  0.4480E+00
      9.461  0.0000E+00  0.4480E+00
      9.534  0.0000E+00  0.4480E+00
      9.607  0.0000E+00  0.4480E+00
      9.680  0.0000E+00  0.4480E+00
      9.753  0.0000E+00  0.4480E+00
