       N       E                     dE             d eps       ncg     rms          rms(c)
DAV:   1     0.887525040725E+03    0.88753E+03   -0.55148E+04  4480   0.869E+02
DAV:   2    -0.533953483943E+02   -0.94092E+03   -0.88503E+03  6104   0.210E+02
DAV:   3    -0.981387629539E+02   -0.44743E+02   -0.42632E+02  5600   0.471E+01
DAV:   4    -0.989048670925E+02   -0.76610E+00   -0.76552E+00  5936   0.670E+00
DAV:   5    -0.989216560542E+02   -0.16789E-01   -0.16782E-01  6244   0.859E-01    0.437E+01
DAV:   6    -0.950201071490E+02    0.39015E+01   -0.24601E+01  5460   0.159E+01    0.309E+01
DAV:   7    -0.120762716501E+03   -0.25743E+02   -0.17044E+02  4788   0.457E+01    0.450E+01
DAV:   8    -0.943012771706E+02    0.26461E+02   -0.48016E+01  5236   0.247E+01    0.130E+01
DAV:   9    -0.937115201633E+02    0.58976E+00   -0.30023E+01  5236   0.165E+01    0.119E+01
DAV:  10    -0.927957014047E+02    0.91582E+00   -0.42137E+00  5124   0.672E+00    0.270E+00
DAV:  11    -0.928366586730E+02   -0.40957E-01   -0.10089E+00  5824   0.242E+00    0.344E+00
DAV:  12    -0.927677191524E+02    0.68940E-01   -0.54162E-01  5376   0.175E+00    0.162E+00
DAV:  13    -0.927670141387E+02    0.70501E-03   -0.21054E-02  6020   0.390E-01    0.126E+00
DAV:  14    -0.927678296225E+02   -0.81548E-03   -0.76483E-02  5236   0.769E-01    0.913E-01
DAV:  15    -0.927636541193E+02    0.41755E-02   -0.20120E-02  5460   0.459E-01    0.485E-01
DAV:  16    -0.927625713696E+02    0.10827E-02   -0.72174E-03  5012   0.216E-01    0.148E-01
DAV:  17    -0.927626111119E+02   -0.39742E-04   -0.67859E-04  5068   0.678E-02    0.107E-01
DAV:  18    -0.927625405953E+02    0.70517E-04   -0.86488E-04  4732   0.711E-02    0.458E-02
DAV:  19    -0.927625529680E+02   -0.12373E-04   -0.33360E-05  3752   0.147E-02    0.251E-02
DAV:  20    -0.927625802960E+02   -0.27328E-04   -0.11623E-05  3444   0.930E-03    0.166E-02
DAV:  21    -0.927626120101E+02   -0.31714E-04   -0.11057E-05  3472   0.958E-03    0.386E-03
DAV:  22    -0.927626402982E+02   -0.28288E-04   -0.32310E-06  3304   0.488E-03    0.725E-03
DAV:  23    -0.927626589706E+02   -0.18672E-04   -0.10871E-06  3136   0.241E-03    0.513E-03
DAV:  24    -0.927626722530E+02   -0.13282E-04   -0.10822E-06  3220   0.278E-03    0.237E-03
DAV:  25    -0.927626805533E+02   -0.83003E-05   -0.94251E-07  3220   0.312E-03
   1 F= -.92762681E+02 E0= -.92750814E+02  d E =-.927627E+02
       N       E                     dE             d eps       ncg     rms          rms(c)
DAV:   1    -0.927765873672E+02   -0.13915E-01   -0.12347E+01  4480   0.791E+00    0.655E-01
DAV:   2    -0.928456727602E+02   -0.69085E-01   -0.60210E-01  5376   0.203E+00    0.273E+00
DAV:   3    -0.927971576339E+02    0.48515E-01   -0.17566E-01  5320   0.102E+00    0.108E+00
DAV:   4    -0.927968426583E+02    0.31498E-03   -0.39668E-02  5376   0.628E-01    0.109E+00
DAV:   5    -0.927887653192E+02    0.80773E-02   -0.62716E-02  5124   0.688E-01    0.432E-01
DAV:   6    -0.927899035522E+02   -0.11382E-02   -0.13234E-02  5096   0.343E-01    0.395E-01
DAV:   7    -0.927886095471E+02    0.12940E-02   -0.50247E-03  5264   0.226E-01    0.202E-01
DAV:   8    -0.927882812653E+02    0.32828E-03   -0.19572E-03  4928   0.107E-01    0.615E-02
DAV:   9    -0.927882945008E+02   -0.13235E-04   -0.10945E-04  5292   0.287E-02    0.679E-02
DAV:  10    -0.927883052972E+02   -0.10796E-04   -0.19988E-05  3528   0.113E-02    0.682E-02
DAV:  11    -0.927882923263E+02    0.12971E-04   -0.77349E-05  3192   0.207E-02    0.174E-02
DAV:  12    -0.927882933991E+02   -0.10728E-05   -0.36091E-06  3360   0.572E-03
   2 F= -.92787776E+02 E0= -.92775971E+02  d E =-.250959E-01
       N       E                     dE             d eps       ncg     rms          rms(c)
DAV:   1    -0.927884415323E+02   -0.14921E-03   -0.57579E-01  4480   0.171E+00    0.138E-01
DAV:   2    -0.927910676976E+02   -0.26262E-02   -0.23702E-02  4956   0.409E-01    0.520E-01
DAV:   3    -0.927893021960E+02    0.17655E-02   -0.61496E-03  4928   0.196E-01    0.225E-01
DAV:   4    -0.927894265144E+02   -0.12432E-03   -0.19499E-03  4900   0.139E-01    0.252E-01
DAV:   5    -0.927889871816E+02    0.43933E-03   -0.31070E-03  4732   0.148E-01    0.909E-02
DAV:   6    -0.927890715538E+02   -0.84372E-04   -0.60466E-04  5124   0.741E-02    0.898E-02
DAV:   7    -0.927890091994E+02    0.62354E-04   -0.24309E-04  4844   0.502E-02    0.448E-02
DAV:   8    -0.927889931622E+02    0.16037E-04   -0.10107E-04  4928   0.250E-02    0.145E-02
DAV:   9    -0.927889937364E+02   -0.57417E-06   -0.49028E-06  3360   0.665E-03
   3 F= -.92788980E+02 E0= -.92777174E+02  d E =-.262998E-01
       N       E                     dE             d eps       ncg     rms          rms(c)
DAV:   1    -0.927966978896E+02   -0.77047E-02   -0.48318E+00  4480   0.489E+00    0.340E-01
DAV:   2    -0.928101647488E+02   -0.13467E-01   -0.12376E-01  5208   0.967E-01    0.104E+00
DAV:   3    -0.928016041800E+02    0.85606E-02   -0.80648E-02  5096   0.671E-01    0.247E-01
DAV:   4    -0.928019641816E+02   -0.36000E-03   -0.12558E-02  4816   0.312E-01    0.407E-01
DAV:   5    -0.928009972864E+02    0.96690E-03   -0.30948E-03  4816   0.177E-01    0.172E-01
DAV:   6    -0.928014580254E+02   -0.46074E-03   -0.28571E-03  5264   0.163E-01    0.231E-01
DAV:   7    -0.928010243908E+02    0.43363E-03   -0.22717E-03  4984   0.145E-01    0.100E-01
DAV:   8    -0.928009491696E+02    0.75221E-04   -0.58282E-04  5152   0.679E-02    0.253E-02
DAV:   9    -0.928009466806E+02    0.24890E-05   -0.26438E-05  3556   0.154E-02
   4 F= -.92800946E+02 E0= -.92789232E+02  d E =-.119655E-01
       N       E                     dE             d eps       ncg     rms          rms(c)
DAV:   1    -0.927861730127E+02    0.14776E-01   -0.43597E+01  4480   0.147E+01    0.985E-01
DAV:   2    -0.928998277777E+02   -0.11365E+00   -0.10137E+00  5348   0.281E+00    0.295E+00
DAV:   3    -0.928316016254E+02    0.68226E-01   -0.64234E-01  5460   0.185E+00    0.719E-01
DAV:   4    -0.928316737881E+02   -0.72163E-04   -0.85326E-02  4872   0.822E-01    0.107E+00
DAV:   5    -0.928244408771E+02    0.72329E-02   -0.25019E-02  4872   0.508E-01    0.401E-01
DAV:   6    -0.928279920194E+02   -0.35511E-02   -0.25086E-02  5264   0.479E-01    0.638E-01
DAV:   7    -0.928247510401E+02    0.32410E-02   -0.17565E-02  4928   0.417E-01    0.300E-01
DAV:   8    -0.928239496978E+02    0.80134E-03   -0.52872E-03  4872   0.208E-01    0.707E-02
DAV:   9    -0.928239383546E+02    0.11343E-04   -0.25304E-04  5572   0.458E-02    0.407E-02
DAV:  10    -0.928239301629E+02    0.81917E-05   -0.12248E-04  4004   0.280E-02    0.390E-02
DAV:  11    -0.928239224266E+02    0.77363E-05   -0.59586E-05  3276   0.189E-02
   5 F= 0.51510134E+04 E0= 0.51510246E+04  d E =0.524380E+04
       N       E                     dE             d eps       ncg     rms          rms(c)
DAV:   1    -0.926683878706E+02    0.15554E+00   -0.17580E+02  4480   0.296E+01    0.183E+00
DAV:   2    -0.930536273906E+02   -0.38524E+00   -0.34673E+00  5432   0.523E+00    0.523E+00
DAV:   3    -0.928445440027E+02    0.20908E+00   -0.19987E+00  5544   0.310E+00    0.133E+00
DAV:   4    -0.928353141371E+02    0.92299E-02   -0.19392E-01  5208   0.123E+00    0.162E+00
DAV:   5    -0.928178985755E+02    0.17416E-01   -0.85574E-02  5152   0.973E-01    0.589E-01
DAV:   6    -0.928288931672E+02   -0.10995E-01   -0.98808E-02  5012   0.887E-01    0.112E+00
DAV:   7    -0.928192998442E+02    0.95933E-02   -0.61269E-02  5040   0.777E-01    0.564E-01
DAV:   8    -0.928161685683E+02    0.31313E-02   -0.21734E-02  4928   0.405E-01    0.169E-01
DAV:   9    -0.928160283109E+02    0.14026E-03   -0.11955E-03  5572   0.976E-02    0.945E-02
DAV:  10    -0.928159326129E+02    0.95698E-04   -0.46937E-04  5488   0.579E-02    0.377E-02
DAV:  11    -0.928159341342E+02   -0.15213E-05   -0.10394E-04  5012   0.245E-02    0.141E-02
DAV:  12    -0.928159335381E+02    0.59604E-06   -0.15656E-05  3332   0.104E-02
   6 F= -.92815930E+02 E0= -.92805917E+02  d E =-.269495E-01
       N       E                     dE             d eps       ncg     rms          rms(c)
DAV:   1    -0.927692406590E+02    0.46693E-01   -0.65406E+01  4480   0.179E+01    0.125E+00
DAV:   2    -0.930765390681E+02   -0.30730E+00   -0.25748E+00  5404   0.425E+00    0.539E+00
DAV:   3    -0.928407789381E+02    0.23576E+00   -0.17369E+00  5460   0.308E+00    0.790E-01
DAV:   4    -0.928461347132E+02   -0.53558E-02   -0.16109E-01  5208   0.123E+00    0.157E+00
DAV:   5    -0.928320852521E+02    0.14049E-01   -0.34382E-02  5236   0.620E-01    0.768E-01
DAV:   6    -0.928354243582E+02   -0.33391E-02   -0.30973E-02  5320   0.548E-01    0.811E-01
DAV:   7    -0.928300901984E+02    0.53342E-02   -0.21258E-02  5096   0.460E-01    0.382E-01
DAV:   8    -0.928291743270E+02    0.91587E-03   -0.66998E-03  5124   0.226E-01    0.128E-01
DAV:   9    -0.928291187850E+02    0.55542E-04   -0.35960E-04  5404   0.617E-02    0.712E-02
DAV:  10    -0.928291312720E+02   -0.12487E-04   -0.96001E-05  5376   0.235E-02    0.853E-02
DAV:  11    -0.928290857228E+02    0.45549E-04   -0.26036E-04  4424   0.372E-02    0.163E-02
DAV:  12    -0.928290896950E+02   -0.39722E-05   -0.11941E-05  3276   0.112E-02
   7 F= -.92829087E+02 E0= -.92818261E+02  d E =-.401070E-01
       N       E                     dE             d eps       ncg     rms          rms(c)
DAV:   1    -0.928333260510E+02   -0.42403E-02   -0.97524E+00  4480   0.705E+00    0.385E-01
DAV:   2    -0.928487273354E+02   -0.15401E-01   -0.14624E-01  5320   0.114E+00    0.980E-01
DAV:   3    -0.928446971525E+02    0.40302E-02   -0.11297E-02  5488   0.289E-01    0.606E-01
DAV:   4    -0.928441821870E+02    0.51497E-03   -0.61492E-03  4956   0.249E-01    0.617E-01
DAV:   5    -0.928420172339E+02    0.21650E-02   -0.66721E-03  5292   0.233E-01    0.325E-01
DAV:   6    -0.928417017197E+02    0.31551E-03   -0.55266E-03  5208   0.171E-01    0.121E-01
DAV:   7    -0.928416524232E+02    0.49296E-04   -0.82558E-04  5488   0.911E-02    0.816E-02
DAV:   8    -0.928416153479E+02    0.37075E-04   -0.38117E-04  4928   0.584E-02    0.688E-02
DAV:   9    -0.928416250492E+02   -0.97013E-05   -0.54933E-05  3416   0.191E-02
   8 F= -.92841624E+02 E0= -.92830882E+02  d E =-.125371E-01
       N       E                     dE             d eps       ncg     rms          rms(c)
DAV:   1    -0.928242218254E+02    0.17394E-01   -0.35691E+01  4536   0.135E+01    0.729E-01
DAV:   2    -0.928799048577E+02   -0.55683E-01   -0.52569E-01  5292   0.217E+00    0.182E+00
DAV:   3    -0.928654191928E+02    0.14486E-01   -0.43298E-02  5516   0.557E-01    0.108E+00
DAV:   4    -0.928660710915E+02   -0.65190E-03   -0.25353E-02  5012   0.494E-01    0.124E+00
DAV:   5    -0.928573692140E+02    0.87019E-02   -0.25505E-02  5264   0.460E-01    0.668E-01
DAV:   6    -0.928551965603E+02    0.21727E-02   -0.29080E-02  5180   0.395E-01    0.219E-01
DAV:   7    -0.928549715349E+02    0.22503E-03   -0.24537E-03  5460   0.162E-01    0.161E-01
DAV:   8    -0.928549404580E+02    0.31077E-04   -0.14152E-03  5376   0.109E-01    0.165E-01
DAV:   9    -0.928549392144E+02    0.12436E-05   -0.17099E-04  5320   0.375E-02    0.158E-01
DAV:  10    -0.928548202097E+02    0.11900E-03   -0.48080E-04  4900   0.522E-02    0.651E-02
DAV:  11    -0.928548235362E+02   -0.33264E-05   -0.52783E-05  4816   0.178E-02
   9 F= -.92854823E+02 E0= -.92844300E+02  d E =-.257362E-01
