unknown system                          
           1
     5.557859    0.000000    0.000000
     2.778930    4.813247    0.000000
     0.000000    0.000000   30.806960
   Pt
  16
Direct configuration=     1
   0.00000000  0.00000000  0.38952237
   0.50000000  0.00000000  0.38952237
   0.00000000  0.50000000  0.38952237
   0.50000000  0.50000000  0.38952237
   0.16666667  0.16666667  0.46317412
   0.66666667  0.16666667  0.46317412
   0.16666667  0.66666667  0.46317412
   0.66666667  0.66666667  0.46317412
   0.83333333  0.33333333  0.53682588
   0.33333333  0.33333333  0.53682588
   0.83333333  0.83333333  0.53682588
   0.33333333  0.83333333  0.53682588
   0.00000000  0.00000000  0.61047763
   0.50000000  0.00000000  0.61047763
   0.00000000  0.50000000  0.61047763
   0.50000000  0.50000000  0.61047763
Direct configuration=     2
   0.00000000  0.00000000  0.38952237
   0.50000000  0.00000000  0.38952237
   0.00000000  0.50000000  0.38952237
   0.50000000  0.50000000  0.38952237
   0.16666667  0.16666667  0.46349964
   0.66666667  0.16666667  0.46349964
   0.16666667  0.66666667  0.46349964
   0.66666667  0.66666667  0.46349964
   0.83333333  0.33333333  0.53650040
   0.33333333  0.33333333  0.53650040
   0.83333333  0.83333333  0.53650040
   0.33333333  0.83333333  0.53650040
  -0.00000000 -0.00000000  0.61107033
   0.50000000  0.00000000  0.61107033
  -0.00000000  0.50000000  0.61107033
   0.50000000  0.50000000  0.61107033
Direct configuration=     3
   0.00000000  0.00000000  0.38952237
   0.50000000  0.00000000  0.38952237
   0.00000000  0.50000000  0.38952237
   0.50000000  0.50000000  0.38952237
   0.16666667  0.16666667  0.46356991
   0.66666667  0.16666667  0.46356991
   0.16666667  0.66666667  0.46356991
   0.66666667  0.66666667  0.46356991
   0.83333333  0.33333333  0.53643013
   0.33333333  0.33333333  0.53643013
   0.83333333  0.83333333  0.53643013
   0.33333333  0.83333333  0.53643013
  -0.00000000 -0.00000000  0.61119830
   0.50000000  0.00000000  0.61119830
  -0.00000000  0.50000000  0.61119830
   0.50000000  0.50000000  0.61119830
Direct configuration=     4
   0.00000000  0.00000000  0.38952237
   0.50000000  0.00000000  0.38952237
   0.00000000  0.50000000  0.38952237
   0.50000000  0.50000000  0.38952237
   0.16666667  0.16666667  0.46356897
   0.66666667  0.16666667  0.46356897
   0.16666667  0.66666667  0.46356897
   0.66666667  0.66666667  0.46356897
   0.83333333  0.33333333  0.53666479
   0.33333333  0.33333333  0.53666479
   0.83333333  0.83333333  0.53666479
   0.33333333  0.83333333  0.53666479
  -0.00000000 -0.00000000  0.61161319
   0.50000000  0.00000000  0.61161319
  -0.00000000  0.50000000  0.61161319
   0.50000000  0.50000000  0.61161319
Direct configuration=     5
   0.00000000  0.00000000  0.38952237
   0.50000000  0.00000000  0.38952237
   0.00000000  0.50000000  0.38952237
   0.50000000  0.50000000  0.38952237
   0.16666667  0.16666667  0.46356614
   0.66666667  0.16666667  0.46356614
   0.16666667  0.66666667  0.46356614
   0.66666667  0.66666667  0.46356614
   0.83333333  0.33333333  0.53736878
   0.33333333  0.33333333  0.53736878
   0.83333333  0.83333333  0.53736878
   0.33333333  0.83333333  0.53736878
  -0.00000000  0.00000000  0.61285788
   0.50000000  0.00000000  0.61285788
  -0.00000000  0.50000000  0.61285788
   0.50000000  0.50000000  0.61285788
Direct configuration=     6
   0.00000000  0.00000000  0.38952237
   0.50000000  0.00000000  0.38952237
   0.00000000  0.50000000  0.38952237
   0.50000000  0.50000000  0.38952237
   0.16666667  0.16666667  0.46356049
   0.66666667  0.16666667  0.46356049
   0.16666667  0.66666667  0.46356049
   0.66666667  0.66666667  0.46356049
   0.83333333  0.33333333  0.53877676
   0.33333333  0.33333333  0.53877676
   0.83333333  0.83333333  0.53877676
   0.33333333  0.83333333  0.53877676
  -0.00000000  0.00000000  0.61534725
   0.50000000  0.00000000  0.61534725
  -0.00000000  0.50000000  0.61534725
   0.50000000  0.50000000  0.61534725
Direct configuration=     7
   0.00000000  0.00000000  0.38952237
   0.50000000  0.00000000  0.38952237
   0.00000000  0.50000000  0.38952237
   0.50000000  0.50000000  0.38952237
   0.16666667  0.16666667  0.46356394
   0.66666667  0.16666667  0.46356394
   0.16666667  0.66666667  0.46356394
   0.66666667  0.66666667  0.46356394
   0.83333333  0.33333333  0.53791642
   0.33333333  0.33333333  0.53791642
   0.83333333  0.83333333  0.53791642
   0.33333333  0.83333333  0.53791642
  -0.00000000  0.00000000  0.61382614
   0.50000000  0.00000000  0.61382614
  -0.00000000  0.50000000  0.61382614
   0.50000000  0.50000000  0.61382614
Direct configuration=     8
   0.00000000  0.00000000  0.38952237
   0.50000000  0.00000000  0.38952237
   0.00000000  0.50000000  0.38952237
   0.50000000  0.50000000  0.38952237
   0.16666667  0.16666667  0.46394904
   0.66666667  0.16666667  0.46394904
   0.16666667  0.66666667  0.46394904
   0.66666667  0.66666667  0.46394904
   0.83333333  0.33333333  0.53835821
   0.33333333  0.33333333  0.53835821
   0.83333333  0.83333333  0.53835821
   0.33333333  0.83333333  0.53835821
  -0.00000000  0.00000000  0.61418131
   0.50000000  0.00000000  0.61418131
  -0.00000000  0.50000000  0.61418131
   0.50000000  0.50000000  0.61418131
Direct configuration=     9
   0.00000000  0.00000000  0.38952237
   0.50000000  0.00000000  0.38952237
   0.00000000  0.50000000  0.38952237
   0.50000000  0.50000000  0.38952237
   0.16666667  0.16666667  0.46468540
   0.66666667  0.16666667  0.46468540
   0.16666667  0.66666667  0.46468540
   0.66666667  0.66666667  0.46468540
   0.83333333  0.33333333  0.53920296
   0.33333333  0.33333333  0.53920296
   0.83333333  0.83333333  0.53920296
   0.33333333  0.83333333  0.53920296
  -0.00000000  0.00000000  0.61486043
   0.50000000  0.00000000  0.61486043
  -0.00000000  0.50000000  0.61486043
   0.50000000  0.50000000  0.61486043
