   17   17    1    1
  0.4847811E+02  0.5557859E-09  0.5557859E-09  0.3080696E-08  0.5000000E-15
  1.000000000000000E-004
  CAR 
 unknown system                          
    161     52     96
 
  0.6250000E-01  0.6250000E-01  0.0000000E+00  0.2083333E-01
    1      -10.076492   1.000000
    2       -8.849993   1.000000
    3       -7.787868   1.000000
    4       -7.623669   1.000000
    5       -7.365215   1.000000
    6       -7.325431   1.000000
    7       -7.310110   1.000000
    8       -7.205567   1.000000
    9       -7.172755   1.000000
   10       -7.147861   1.000000
   11       -6.802728   1.000000
   12       -6.726447   1.000000
   13       -6.712905   1.000000
   14       -6.700501   1.000000
   15       -6.688662   1.000000
   16       -6.503859   1.000000
   17       -6.462500   1.000000
   18       -6.420557   1.000000
   19       -6.377523   1.000000
   20       -5.943108   1.000000
   21       -5.708481   1.000000
   22       -5.614694   1.000000
   23       -5.558326   1.000000
   24       -4.848207   1.000000
   25       -4.788836   1.000000
   26       -4.741462   1.000000
   27       -4.580280   1.000000
   28       -4.557743   1.000000
   29       -4.548883   1.000000
   30       -4.507821   1.000000
   31       -4.289882   1.000000
   32       -4.250740   1.000000
   33       -4.208366   1.000000
   34       -4.094883   1.000000
   35       -4.078733   1.000000
   36       -3.988932   1.000000
   37       -3.947446   1.000000
   38       -3.903363   1.000000
   39       -3.850062   1.000000
   40       -3.811866   1.000000
   41       -3.744570   1.000000
   42       -3.601268   1.000000
   43       -3.568734   1.000000
   44       -3.390650   1.000000
   45       -3.372224   1.000000
   46       -3.137064   1.000000
   47       -3.091023   1.000000
   48       -2.893994   1.000000
   49       -2.866398   1.000000
   50       -2.788037   1.000000
   51       -2.688071   1.000000
   52       -2.389869   1.000000
   53       -2.286033   1.000000
   54       -2.236383   1.000000
   55       -2.074830   1.000000
   56       -2.021582   1.000000
   57       -1.792362   1.000000
   58       -1.737817   1.000000
   59       -1.718315   1.000000
   60       -1.647231   1.000000
   61       -1.544063   1.000000
   62       -1.520362   1.000000
   63       -1.278659   1.000300
   64       -1.154059   1.004632
   65       -1.096711   1.011824
   66       -1.060342   1.018981
   67       -1.037580   1.024164
   68       -0.971399   1.035394
   69       -0.911764   1.018744
   70       -0.876290   0.981921
   71       -0.791040   0.772610
   72       -0.748694   0.610514
   73       -0.702133   0.415044
   74       -0.659889   0.249547
   75       -0.635733   0.168915
   76       -0.612966   0.105294
   77       -0.568353   0.018072
   78       -0.441422  -0.031606
   79       -0.429828  -0.029287
   80       -0.402122  -0.023019
   81       -0.264040  -0.002793
   82       -0.189832  -0.000544
   83       -0.146880  -0.000183
   84       -0.012394  -0.000003
   85        0.067292  -0.000000
   86        0.172553  -0.000000
   87        0.407468  -0.000000
   88        0.478931  -0.000000
   89        1.261392  -0.000000
   90        1.444529  -0.000000
   91        1.683076  -0.000000
   92        1.695582  -0.000000
   93        1.787279  -0.000000
   94        1.803529  -0.000000
   95        2.474772  -0.000000
   96        2.645852  -0.000000
 
 -0.6250000E-01  0.1040834E-16  0.0000000E+00  0.1041667E-01
    1      -10.076493   1.000000
    2       -8.850011   1.000000
    3       -7.787946   1.000000
    4       -7.623663   1.000000
    5       -7.365824   1.000000
    6       -7.321816   1.000000
    7       -7.312917   1.000000
    8       -7.207883   1.000000
    9       -7.164773   1.000000
   10       -7.153710   1.000000
   11       -6.804225   1.000000
   12       -6.717254   1.000000
   13       -6.717028   1.000000
   14       -6.704823   1.000000
   15       -6.685965   1.000000
   16       -6.507206   1.000000
   17       -6.461784   1.000000
   18       -6.411759   1.000000
   19       -6.386067   1.000000
   20       -5.942789   1.000000
   21       -5.709358   1.000000
   22       -5.614140   1.000000
   23       -5.557338   1.000000
   24       -4.852020   1.000000
   25       -4.786949   1.000000
   26       -4.741436   1.000000
   27       -4.582455   1.000000
   28       -4.554856   1.000000
   29       -4.545713   1.000000
   30       -4.509530   1.000000
   31       -4.289747   1.000000
   32       -4.246034   1.000000
   33       -4.212835   1.000000
   34       -4.090452   1.000000
   35       -4.082948   1.000000
   36       -3.981021   1.000000
   37       -3.957751   1.000000
   38       -3.896431   1.000000
   39       -3.852028   1.000000
   40       -3.814455   1.000000
   41       -3.741880   1.000000
   42       -3.600976   1.000000
   43       -3.570150   1.000000
   44       -3.399516   1.000000
   45       -3.370956   1.000000
   46       -3.138703   1.000000
   47       -3.070956   1.000000
   48       -2.892941   1.000000
   49       -2.888419   1.000000
   50       -2.803693   1.000000
   51       -2.663730   1.000000
   52       -2.378838   1.000000
   53       -2.278098   1.000000
   54       -2.245154   1.000000
   55       -2.070914   1.000000
   56       -2.036063   1.000000
   57       -1.770426   1.000000
   58       -1.755717   1.000000
   59       -1.725407   1.000000
   60       -1.658066   1.000000
   61       -1.549617   1.000000
   62       -1.534685   1.000000
   63       -1.221628   1.001176
   64       -1.197133   1.001995
   65       -1.102141   1.010924
   66       -1.034082   1.024973
   67       -1.033827   1.025032
   68       -0.973349   1.035321
   69       -0.926962   1.027370
   70       -0.875692   0.981071
   71       -0.804995   0.818872
   72       -0.720002   0.490174
   73       -0.714148   0.465435
   74       -0.645433   0.199772
   75       -0.637386   0.174022
   76       -0.610953   0.100288
   77       -0.571217   0.022219
   78       -0.441596  -0.031638
   79       -0.428311  -0.028964
   80       -0.394435  -0.021253
   81       -0.262044  -0.002685
   82       -0.175298  -0.000380
   83       -0.157396  -0.000241
   84       -0.029528  -0.000006
   85        0.043071  -0.000000
   86        0.180488  -0.000000
   87        0.451005  -0.000000
   88        0.454983  -0.000000
   89        1.257987  -0.000000
   90        1.459311  -0.000000
   91        1.674068  -0.000000
   92        1.684820  -0.000000
   93        1.761037  -0.000000
   94        1.837283  -0.000000
   95        2.470474  -0.000000
   96        2.649037  -0.000000
 
  0.1875000E+00  0.6250000E-01  0.0000000E+00  0.2083333E-01
    1       -9.872959   1.000000
    2       -8.650458   1.000000
    3       -7.585313   1.000000
    4       -7.428654   1.000000
    5       -7.334819   1.000000
    6       -7.253658   1.000000
    7       -7.138266   1.000000
    8       -7.116181   1.000000
    9       -7.053198   1.000000
   10       -6.987932   1.000000
   11       -6.708238   1.000000
   12       -6.638815   1.000000
   13       -6.610796   1.000000
   14       -6.601863   1.000000
   15       -6.555492   1.000000
   16       -6.403290   1.000000
   17       -6.330645   1.000000
   18       -6.285520   1.000000
   19       -6.212533   1.000000
   20       -5.895721   1.000000
   21       -5.649311   1.000000
   22       -5.558539   1.000000
   23       -5.501957   1.000000
   24       -4.880201   1.000000
   25       -4.812956   1.000000
   26       -4.743795   1.000000
   27       -4.584505   1.000000
   28       -4.532168   1.000000
   29       -4.495634   1.000000
   30       -4.476764   1.000000
   31       -4.434532   1.000000
   32       -4.341999   1.000000
   33       -4.079312   1.000000
   34       -4.062072   1.000000
   35       -4.058078   1.000000
   36       -3.988195   1.000000
   37       -3.929181   1.000000
   38       -3.898532   1.000000
   39       -3.851868   1.000000
   40       -3.808383   1.000000
   41       -3.793506   1.000000
   42       -3.675363   1.000000
   43       -3.563784   1.000000
   44       -3.516637   1.000000
   45       -3.431653   1.000000
   46       -3.414489   1.000000
   47       -3.232861   1.000000
   48       -3.113940   1.000000
   49       -2.922152   1.000000
   50       -2.867536   1.000000
   51       -2.662962   1.000000
   52       -2.609906   1.000000
   53       -2.392635   1.000000
   54       -2.367852   1.000000
   55       -2.196451   1.000000
   56       -2.111983   1.000000
   57       -1.959180   1.000000
   58       -1.903860   1.000000
   59       -1.872154   1.000000
   60       -1.787805   1.000000
   61       -1.740499   1.000000
   62       -1.699701   1.000000
   63       -1.616420   1.000000
   64       -1.561762   1.000000
   65       -1.527275   1.000000
   66       -1.388948   1.000013
   67       -1.244675   1.000693
   68       -1.174019   1.003180
   69       -1.096434   1.011871
   70       -1.063426   1.018308
   71       -1.007642   1.030760
   72       -0.946385   1.033529
   73       -0.913727   1.020072
   74       -0.865219   0.964825
   75       -0.804735   0.818052
   76       -0.781666   0.739260
   77       -0.726176   0.516295
   78       -0.688068   0.357381
   79       -0.640456   0.183673
   80       -0.583821   0.042766
   81       -0.507825  -0.031107
   82       -0.442622  -0.031826
   83       -0.379728  -0.017985
   84       -0.328076  -0.008763
   85       -0.103606  -0.000055
   86        0.254468  -0.000000
   87        0.331633  -0.000000
   88        0.605859  -0.000000
   89        0.887214  -0.000000
   90        1.079864  -0.000000
   91        1.345910  -0.000000
   92        1.589184  -0.000000
   93        2.213275  -0.000000
   94        2.475326  -0.000000
   95        2.798681  -0.000000
   96        3.107851  -0.000000
 
  0.1250000E+00  0.1875000E+00  0.0000000E+00  0.2083333E-01
    1       -9.872951   1.000000
    2       -8.650265   1.000000
    3       -7.584472   1.000000
    4       -7.428500   1.000000
    5       -7.335489   1.000000
    6       -7.255302   1.000000
    7       -7.137724   1.000000
    8       -7.110947   1.000000
    9       -7.063418   1.000000
   10       -6.981975   1.000000
   11       -6.702240   1.000000
   12       -6.646349   1.000000
   13       -6.606455   1.000000
   14       -6.601923   1.000000
   15       -6.572510   1.000000
   16       -6.390248   1.000000
   17       -6.345305   1.000000
   18       -6.279802   1.000000
   19       -6.197106   1.000000
   20       -5.900120   1.000000
   21       -5.643943   1.000000
   22       -5.561531   1.000000
   23       -5.510002   1.000000
   24       -4.845908   1.000000
   25       -4.823641   1.000000
   26       -4.757485   1.000000
   27       -4.585310   1.000000
   28       -4.544434   1.000000
   29       -4.494176   1.000000
   30       -4.485607   1.000000
   31       -4.420714   1.000000
   32       -4.350558   1.000000
   33       -4.079436   1.000000
   34       -4.065755   1.000000
   35       -4.051026   1.000000
   36       -3.996337   1.000000
   37       -3.946546   1.000000
   38       -3.898332   1.000000
   39       -3.883183   1.000000
   40       -3.791136   1.000000
   41       -3.768310   1.000000
   42       -3.660663   1.000000
   43       -3.539112   1.000000
   44       -3.530884   1.000000
   45       -3.422349   1.000000
   46       -3.406832   1.000000
   47       -3.292304   1.000000
   48       -3.077543   1.000000
   49       -2.925046   1.000000
   50       -2.819017   1.000000
   51       -2.730701   1.000000
   52       -2.631891   1.000000
   53       -2.413277   1.000000
   54       -2.317794   1.000000
   55       -2.228009   1.000000
   56       -2.049281   1.000000
   57       -1.941979   1.000000
   58       -1.915239   1.000000
   59       -1.870409   1.000000
   60       -1.785472   1.000000
   61       -1.730068   1.000000
   62       -1.670504   1.000000
   63       -1.613459   1.000000
   64       -1.540476   1.000000
   65       -1.499037   1.000000
   66       -1.384892   1.000015
   67       -1.276261   1.000319
   68       -1.225059   1.001089
   69       -1.102559   1.010857
   70       -1.060437   1.018960
   71       -1.001426   1.031935
   72       -0.952776   1.034566
   73       -0.921964   1.024940
   74       -0.859912   0.955593
   75       -0.797845   0.795698
   76       -0.766085   0.680344
   77       -0.746704   0.602314
   78       -0.710764   0.451176
   79       -0.637294   0.173735
   80       -0.588857   0.052051
   81       -0.523790  -0.024350
   82       -0.491025  -0.034671
   83       -0.374640  -0.016906
   84       -0.278576  -0.003704
   85       -0.108747  -0.000064
   86        0.248839  -0.000000
   87        0.321220  -0.000000
   88        0.600628  -0.000000
   89        0.887893  -0.000000
   90        1.073594  -0.000000
   91        1.339924  -0.000000
   92        1.623027  -0.000000
   93        2.210039  -0.000000
   94        2.495590  -0.000000
   95        2.786755  -0.000000
   96        3.102537  -0.000000
 
 -0.6250000E-01  0.1250000E+00  0.0000000E+00  0.2083333E-01
    1       -9.872956   1.000000
    2       -8.650378   1.000000
    3       -7.584929   1.000000
    4       -7.428532   1.000000
    5       -7.335658   1.000000
    6       -7.253977   1.000000
    7       -7.138001   1.000000
    8       -7.114035   1.000000
    9       -7.057786   1.000000
   10       -6.984689   1.000000
   11       -6.710056   1.000000
   12       -6.637163   1.000000
   13       -6.610878   1.000000
   14       -6.602000   1.000000
   15       -6.560501   1.000000
   16       -6.397515   1.000000
   17       -6.330136   1.000000
   18       -6.294820   1.000000
   19       -6.202490   1.000000
   20       -5.897560   1.000000
   21       -5.646671   1.000000
   22       -5.560147   1.000000
   23       -5.505028   1.000000
   24       -4.876209   1.000000
   25       -4.802890   1.000000
   26       -4.753958   1.000000
   27       -4.585766   1.000000
   28       -4.534396   1.000000
   29       -4.500524   1.000000
   30       -4.477719   1.000000
   31       -4.424760   1.000000
   32       -4.349608   1.000000
   33       -4.084603   1.000000
   34       -4.059031   1.000000
   35       -4.049073   1.000000
   36       -3.993180   1.000000
   37       -3.930058   1.000000
   38       -3.890696   1.000000
   39       -3.881118   1.000000
   40       -3.817736   1.000000
   41       -3.771499   1.000000
   42       -3.667508   1.000000
   43       -3.548762   1.000000
   44       -3.522160   1.000000
   45       -3.432553   1.000000
   46       -3.413520   1.000000
   47       -3.249569   1.000000
   48       -3.104358   1.000000
   49       -2.911552   1.000000
   50       -2.858459   1.000000
   51       -2.701118   1.000000
   52       -2.603718   1.000000
   53       -2.390649   1.000000
   54       -2.365439   1.000000
   55       -2.208057   1.000000
   56       -2.097991   1.000000
   57       -1.953647   1.000000
   58       -1.919875   1.000000
   59       -1.836044   1.000000
   60       -1.789629   1.000000
   61       -1.728577   1.000000
   62       -1.694176   1.000000
   63       -1.614935   1.000000
   64       -1.581861   1.000000
   65       -1.480556   1.000001
   66       -1.420184   1.000005
   67       -1.219933   1.001221
   68       -1.198127   1.001954
   69       -1.092196   1.012607
   70       -1.062268   1.018560
   71       -1.012066   1.029865
   72       -0.955580   1.034888
   73       -0.927809   1.027744
   74       -0.864567   0.963728
   75       -0.818535   0.859514
   76       -0.763081   0.668549
   77       -0.723780   0.506160
   78       -0.692013   0.373363
   79       -0.669062   0.283246
   80       -0.579346   0.035036
   81       -0.481872  -0.035378
   82       -0.476386  -0.035454
   83       -0.401437  -0.022861
   84       -0.291483  -0.004708
   85       -0.097530  -0.000046
   86        0.255200  -0.000000
   87        0.322110  -0.000000
   88        0.597568  -0.000000
   89        0.892561  -0.000000
   90        1.075638  -0.000000
   91        1.338660  -0.000000
   92        1.616587  -0.000000
   93        2.207991  -0.000000
   94        2.488158  -0.000000
   95        2.784162  -0.000000
   96        3.106978  -0.000000
 
  0.3125000E+00  0.6250000E-01  0.0000000E+00  0.2083333E-01
    1       -9.420396   1.000000
    2       -8.219985   1.000000
    3       -7.431388   1.000000
    4       -7.161014   1.000000
    5       -7.025820   1.000000
    6       -7.006337   1.000000
    7       -6.991001   1.000000
    8       -6.807912   1.000000
    9       -6.762072   1.000000
   10       -6.686236   1.000000
   11       -6.580186   1.000000
   12       -6.456857   1.000000
   13       -6.391084   1.000000
   14       -6.355038   1.000000
   15       -6.250141   1.000000
   16       -6.205288   1.000000
   17       -6.071377   1.000000
   18       -5.952333   1.000000
   19       -5.872084   1.000000
   20       -5.740765   1.000000
   21       -5.509770   1.000000
   22       -5.439405   1.000000
   23       -5.377842   1.000000
   24       -5.002882   1.000000
   25       -4.925742   1.000000
   26       -4.806505   1.000000
   27       -4.729039   1.000000
   28       -4.672984   1.000000
   29       -4.616449   1.000000
   30       -4.428018   1.000000
   31       -4.388975   1.000000
   32       -4.289143   1.000000
   33       -4.211094   1.000000
   34       -4.153190   1.000000
   35       -4.123107   1.000000
   36       -4.036274   1.000000
   37       -3.966212   1.000000
   38       -3.890343   1.000000
   39       -3.825316   1.000000
   40       -3.780885   1.000000
   41       -3.758570   1.000000
   42       -3.731958   1.000000
   43       -3.702601   1.000000
   44       -3.669127   1.000000
   45       -3.571319   1.000000
   46       -3.506122   1.000000
   47       -3.418161   1.000000
   48       -3.286850   1.000000
   49       -3.138031   1.000000
   50       -2.951591   1.000000
   51       -2.934512   1.000000
   52       -2.817946   1.000000
   53       -2.753560   1.000000
   54       -2.674944   1.000000
   55       -2.622511   1.000000
   56       -2.533351   1.000000
   57       -2.485941   1.000000
   58       -2.407987   1.000000
   59       -2.366639   1.000000
   60       -2.268617   1.000000
   61       -2.254931   1.000000
   62       -2.134985   1.000000
   63       -2.064955   1.000000
   64       -1.960672   1.000000
   65       -1.898309   1.000000
   66       -1.806152   1.000000
   67       -1.704048   1.000000
   68       -1.595957   1.000000
   69       -1.513917   1.000000
   70       -1.443158   1.000002
   71       -1.415593   1.000005
   72       -1.385342   1.000014
   73       -1.223640   1.001124
   74       -1.199123   1.001914
   75       -1.154938   1.004558
   76       -1.043236   1.022855
   77       -1.013746   1.029515
   78       -0.919176   1.023416
   79       -0.813678   0.845438
   80       -0.771339   0.700654
   81       -0.721184   0.495175
   82       -0.635026   0.166751
   83       -0.537321  -0.015494
   84       -0.450217  -0.033112
   85       -0.418085  -0.026697
   86       -0.041104  -0.000008
   87        0.336013  -0.000000
   88        0.617495  -0.000000
   89        0.983683  -0.000000
   90        1.470154  -0.000000
   91        1.797283  -0.000000
   92        1.951573  -0.000000
   93        2.352215  -0.000000
   94        2.458627  -0.000000
   95        3.176801  -0.000000
   96        3.584592  -0.000000
 
  0.2500000E+00  0.3125000E+00  0.0000000E+00  0.2083333E-01
    1       -9.420318   1.000000
    2       -8.218735   1.000000
    3       -7.433089   1.000000
    4       -7.154829   1.000000
    5       -7.037758   1.000000
    6       -7.006914   1.000000
    7       -6.984066   1.000000
    8       -6.807662   1.000000
    9       -6.769893   1.000000
   10       -6.679693   1.000000
   11       -6.588329   1.000000
   12       -6.451694   1.000000
   13       -6.380705   1.000000
   14       -6.353663   1.000000
   15       -6.285491   1.000000
   16       -6.203197   1.000000
   17       -6.037805   1.000000
   18       -5.968451   1.000000
   19       -5.832656   1.000000
   20       -5.774762   1.000000
   21       -5.508364   1.000000
   22       -5.425215   1.000000
   23       -5.407146   1.000000
   24       -4.977714   1.000000
   25       -4.905248   1.000000
   26       -4.823100   1.000000
   27       -4.750373   1.000000
   28       -4.663743   1.000000
   29       -4.613506   1.000000
   30       -4.435574   1.000000
   31       -4.368618   1.000000
   32       -4.323267   1.000000
   33       -4.216807   1.000000
   34       -4.165372   1.000000
   35       -4.112813   1.000000
   36       -4.047237   1.000000
   37       -4.001730   1.000000
   38       -3.864810   1.000000
   39       -3.848212   1.000000
   40       -3.768373   1.000000
   41       -3.748812   1.000000
   42       -3.719956   1.000000
   43       -3.701118   1.000000
   44       -3.654790   1.000000
   45       -3.595414   1.000000
   46       -3.506881   1.000000
   47       -3.423219   1.000000
   48       -3.243666   1.000000
   49       -3.132566   1.000000
   50       -3.026270   1.000000
   51       -2.925955   1.000000
   52       -2.820311   1.000000
   53       -2.709959   1.000000
   54       -2.669862   1.000000
   55       -2.611521   1.000000
   56       -2.525698   1.000000
   57       -2.478838   1.000000
   58       -2.402932   1.000000
   59       -2.345329   1.000000
   60       -2.294453   1.000000
   61       -2.244721   1.000000
   62       -2.094926   1.000000
   63       -2.035209   1.000000
   64       -1.951234   1.000000
   65       -1.863268   1.000000
   66       -1.778861   1.000000
   67       -1.714101   1.000000
   68       -1.622310   1.000000
   69       -1.501234   1.000000
   70       -1.448318   1.000002
   71       -1.416127   1.000005
   72       -1.317140   1.000108
   73       -1.248256   1.000636
   74       -1.207537   1.001601
   75       -1.186743   1.002470
   76       -1.114702   1.009025
   77       -1.016353   1.028960
   78       -0.934330   1.030288
   79       -0.844580   0.925011
   80       -0.784229   0.748549
   81       -0.690292   0.366369
   82       -0.655356   0.233476
   83       -0.569256   0.019359
   84       -0.483966  -0.035283
   85       -0.423781  -0.027975
   86       -0.022801  -0.000004
   87        0.342149  -0.000000
   88        0.611500  -0.000000
   89        0.999785  -0.000000
   90        1.492648  -0.000000
   91        1.770074  -0.000000
   92        1.979271  -0.000000
   93        2.325860  -0.000000
   94        2.482694  -0.000000
   95        3.208058  -0.000000
   96        3.595508  -0.000000
 
 -0.6250000E-01  0.2500000E+00  0.0000000E+00  0.2083333E-01
    1       -9.420341   1.000000
    2       -8.219039   1.000000
    3       -7.432936   1.000000
    4       -7.155417   1.000000
    5       -7.037104   1.000000
    6       -7.006264   1.000000
    7       -6.986596   1.000000
    8       -6.805320   1.000000
    9       -6.769476   1.000000
   10       -6.675111   1.000000
   11       -6.594911   1.000000
   12       -6.453814   1.000000
   13       -6.392888   1.000000
   14       -6.340313   1.000000
   15       -6.265565   1.000000
   16       -6.205160   1.000000
   17       -6.042148   1.000000
   18       -5.992108   1.000000
   19       -5.831926   1.000000
   20       -5.762894   1.000000
   21       -5.503819   1.000000
   22       -5.435233   1.000000
   23       -5.397944   1.000000
   24       -5.004298   1.000000
   25       -4.868261   1.000000
   26       -4.839473   1.000000
   27       -4.757775   1.000000
   28       -4.651915   1.000000
   29       -4.611489   1.000000
   30       -4.443293   1.000000
   31       -4.382508   1.000000
   32       -4.308936   1.000000
   33       -4.201667   1.000000
   34       -4.160685   1.000000
   35       -4.115362   1.000000
   36       -4.049921   1.000000
   37       -3.990971   1.000000
   38       -3.873687   1.000000
   39       -3.842523   1.000000
   40       -3.783966   1.000000
   41       -3.746230   1.000000
   42       -3.705442   1.000000
   43       -3.687101   1.000000
   44       -3.658538   1.000000
   45       -3.616043   1.000000
   46       -3.502972   1.000000
   47       -3.409242   1.000000
   48       -3.276570   1.000000
   49       -3.134200   1.000000
   50       -2.994732   1.000000
   51       -2.916742   1.000000
   52       -2.815227   1.000000
   53       -2.736239   1.000000
   54       -2.680722   1.000000
   55       -2.606941   1.000000
   56       -2.545546   1.000000
   57       -2.474218   1.000000
   58       -2.401592   1.000000
   59       -2.360122   1.000000
   60       -2.273273   1.000000
   61       -2.255138   1.000000
   62       -2.131571   1.000000
   63       -2.054121   1.000000
   64       -1.914390   1.000000
   65       -1.866543   1.000000
   66       -1.791270   1.000000
   67       -1.743364   1.000000
   68       -1.607275   1.000000
   69       -1.491976   1.000000
   70       -1.453001   1.000002
   71       -1.410097   1.000007
   72       -1.338573   1.000059
   73       -1.229239   1.000991
   74       -1.185534   1.002531
   75       -1.163256   1.003907
   76       -1.103577   1.010694
   77       -1.019619   1.028250
   78       -0.929616   1.028509
   79       -0.837264   0.908337
   80       -0.780113   0.733576
   81       -0.712546   0.458682
   82       -0.649665   0.213891
   83       -0.558428   0.005135
   84       -0.480773  -0.035412
   85       -0.428930  -0.029096
   86       -0.031452  -0.000006
   87        0.345771  -0.000000
   88        0.614003  -0.000000
   89        1.001534  -0.000000
   90        1.496026  -0.000000
   91        1.768679  -0.000000
   92        1.991645  -0.000000
   93        2.318692  -0.000000
   94        2.464831  -0.000000
   95        3.207879  -0.000000
   96        3.593731  -0.000000
 
  0.4375000E+00  0.6250000E-01  0.0000000E+00  0.2083333E-01
    1       -8.783129   1.000000
    2       -7.803991   1.000000
    3       -7.659047   1.000000
    4       -7.073579   1.000000
    5       -6.710397   1.000000
    6       -6.655704   1.000000
    7       -6.530258   1.000000
    8       -6.476079   1.000000
    9       -6.453504   1.000000
   10       -6.421990   1.000000
   11       -6.389562   1.000000
   12       -6.194268   1.000000
   13       -6.081657   1.000000
   14       -6.045076   1.000000
   15       -5.960865   1.000000
   16       -5.932955   1.000000
   17       -5.785521   1.000000
   18       -5.609050   1.000000
   19       -5.576936   1.000000
   20       -5.457309   1.000000
   21       -5.295079   1.000000
   22       -5.267960   1.000000
   23       -5.244225   1.000000
   24       -5.124540   1.000000
   25       -5.080775   1.000000
   26       -4.956939   1.000000
   27       -4.908682   1.000000
   28       -4.815971   1.000000
   29       -4.675066   1.000000
   30       -4.619172   1.000000
   31       -4.573369   1.000000
   32       -4.497542   1.000000
   33       -4.369491   1.000000
   34       -4.328428   1.000000
   35       -4.297227   1.000000
   36       -4.228006   1.000000
   37       -4.082053   1.000000
   38       -4.018896   1.000000
   39       -3.995306   1.000000
   40       -3.867416   1.000000
   41       -3.813674   1.000000
   42       -3.723121   1.000000
   43       -3.674353   1.000000
   44       -3.638223   1.000000
   45       -3.575690   1.000000
   46       -3.543380   1.000000
   47       -3.499341   1.000000
   48       -3.441527   1.000000
   49       -3.391481   1.000000
   50       -3.306210   1.000000
   51       -3.226584   1.000000
   52       -3.201069   1.000000
   53       -3.163105   1.000000
   54       -3.047734   1.000000
   55       -2.960593   1.000000
   56       -2.900986   1.000000
   57       -2.841049   1.000000
   58       -2.814881   1.000000
   59       -2.701750   1.000000
   60       -2.627315   1.000000
   61       -2.461987   1.000000
   62       -2.388808   1.000000
   63       -2.353262   1.000000
   64       -2.265323   1.000000
   65       -2.218594   1.000000
   66       -2.143642   1.000000
   67       -2.041367   1.000000
   68       -1.940544   1.000000
   69       -1.930557   1.000000
   70       -1.844035   1.000000
   71       -1.805778   1.000000
   72       -1.772816   1.000000
   73       -1.607809   1.000000
   74       -1.459324   1.000001
   75       -1.367501   1.000025
   76       -1.222377   1.001157
   77       -1.128932   1.007175
   78       -1.057985   1.019502
   79       -0.953098   1.034607
   80       -0.775917   0.717996
   81       -0.757480   0.646237
   82       -0.717957   0.481525
   83       -0.602740   0.080920
   84       -0.456246  -0.033974
   85       -0.429008  -0.029113
   86       -0.283951  -0.004099
   87        0.595527  -0.000000
   88        0.775364  -0.000000
   89        1.133136  -0.000000
   90        1.608524  -0.000000
   91        1.892020  -0.000000
   92        2.075679  -0.000000
   93        2.528214  -0.000000
   94        2.655489  -0.000000
   95        3.460081  -0.000000
   96        3.823727  -0.000000
 
  0.3750000E+00  0.4375000E+00  0.0000000E+00  0.2083333E-01
    1       -8.782584   1.000000
    2       -7.797191   1.000000
    3       -7.664070   1.000000
    4       -7.078004   1.000000
    5       -6.710362   1.000000
    6       -6.658490   1.000000
    7       -6.548302   1.000000
    8       -6.489124   1.000000
    9       -6.447086   1.000000
   10       -6.411796   1.000000
   11       -6.370055   1.000000
   12       -6.199771   1.000000
   13       -6.084180   1.000000
   14       -6.027634   1.000000
   15       -5.948937   1.000000
   16       -5.921671   1.000000
   17       -5.800663   1.000000
   18       -5.683752   1.000000
   19       -5.558821   1.000000
   20       -5.430525   1.000000