 vasp.5.4.4.18Apr17-6-g9f103f2a35 (build Apr 28 2017 10:53:45) complex          
  
 executed on             LinuxIFC date 2020.02.16  21:07:03
 running on   24 total cores
 distrk:  each k-point on   24 cores,    1 groups
 distr:  one band on NCORES_PER_BAND=   1 cores,   24 groups


--------------------------------------------------------------------------------------------------------


 INCAR:
 POTCAR:    PAW_PBE Ir 06Sep2000                  
 POTCAR:    PAW_PBE Pt 04Feb2005                  
 POTCAR:    PAW_PBE Au 04Oct2007                  
 POTCAR:    PAW_PBE H 15Jun2001                   

 ----------------------------------------------------------------------------- 
|                                                                             |
|           W    W    AA    RRRRR   N    N  II  N    N   GGGG   !!!           |
|           W    W   A  A   R    R  NN   N  II  NN   N  G    G  !!!           |
|           W    W  A    A  R    R  N N  N  II  N N  N  G       !!!           |
|           W WW W  AAAAAA  RRRRR   N  N N  II  N  N N  G  GGG   !            |
|           WW  WW  A    A  R   R   N   NN  II  N   NN  G    G                |
|           W    W  A    A  R    R  N    N  II  N    N   GGGG   !!!           |
|                                                                             |
|      For optimal performance we recommend to set                            |
|        NCORE= 4 - approx SQRT( number of cores)                             |
|      NCORE specifies how many cores store one orbital (NPAR=cpu/NCORE).     |
|      This setting can  greatly improve the performance of VASP for DFT.     |
|      The default,   NCORE=1            might be grossly inefficient         |
|      on modern multi-core architectures or massively parallel machines.     |
|      Do your own testing !!!!                                               |
|      Unfortunately you need to use the default for GW and RPA calculations. |
|      (for HF NCORE is supported but not extensively tested yet)             |
|                                                                             |
 ----------------------------------------------------------------------------- 

 POTCAR:    PAW_PBE Ir 06Sep2000                  
   SHA256 =  7c6af8d4d487b237782eb51e6f62977b27a1da78c3c96acd1cebefd6c308f120 Ir
   COPYR  = (c) Copyright 06Sep2000 Georg Kresse                                
   COPYR  = This file is part of the software VASP. Any use, copying, and all ot
   COPYR  = If you do not have a valid VASP license, you may not use, copy or di
   VRHFIN =Ir: s1d8                                                             
   LEXCH  = PE                                                                  
   EATOM  =   560.1833 eV,   41.1723 Ry                                         
                                                                                
   TITEL  = PAW_PBE Ir 06Sep2000                                                
   LULTRA =        F    use ultrasoft PP ?                                      
   IUNSCR =        1    unscreen: 0-lin 1-nonlin 2-no                           
   RPACOR =    2.250    partial core radius                                     
   POMASS =  192.220; ZVAL   =    9.000    mass and valenz                      
   RCORE  =    2.600    outmost cutoff radius                                   
   RWIGS  =    2.690; RWIGS  =    1.423    wigner-seitz radius (au A)           
   ENMAX  =  210.864; ENMIN  =  158.148 eV                                      
   RCLOC  =    1.857    cutoff for local pot                                    
   LCOR   =        T    correct aug charges                                     
   LPAW   =        T    paw PP                                                  
   EAUG   =  318.962                                                            
   DEXC   =    0.000                                                            
   RMAX   =    2.667    core radius for proj-oper                               
   RAUG   =    1.300    factor for augmentation sphere                          
   RDEP   =    2.748    radius for radial grids                                 
   RDEPT  =    2.300    core radius for aug-charge                              
                                                                                
   Atomic configuration                                                         
   16 entries                                                                   
     n  l   j            E        occ.                                          
     1  0  0.50    -76100.0449   2.0000                                         
     2  0  0.50    -13308.1683   2.0000                                         
     2  1  1.50    -11558.0021   6.0000                                         
     3  0  0.50     -3110.7274   2.0000                                         
     3  1  1.50     -2599.2109   6.0000                                         
     3  2  2.50     -2037.1515  10.0000                                         
     4  0  0.50      -661.6001   2.0000                                         
     4  1  1.50      -493.8981   6.0000                                         
     4  2  2.50      -288.1909  10.0000                                         
     4  3  3.50       -59.5718  14.0000                                         
     5  0  0.50       -95.3879   2.0000                                         
     5  1  1.50       -52.2747   6.0000                                         
     5  2  2.50        -5.4180   8.0000                                         
     6  0  0.50        -5.5479   1.0000                                         
     6  1  1.50        -6.8029   0.0000                                         
     5  3  2.50        -1.3606   0.0000                                         
   Description                                                                  
     l       E           TYP  RCUT    TYP  RCUT                                 
     2     -5.4179967     23  2.600                                             
     2     -6.7785793     23  2.600                                             
     0     -5.5478636     23  2.600                                             
     0      2.2542272     23  2.600                                             
     1     -2.7211652     23  2.600                                             
     1     20.4087390     23  2.600                                             
  local pseudopotential read in
  partial core-charges read in
  partial kinetic energy density read in
  atomic valenz-charges read in
  non local Contribution for L=           2  read in
    real space projection operators read in
  non local Contribution for L=           2  read in
    real space projection operators read in
  non local Contribution for L=           0  read in
    real space projection operators read in
  non local Contribution for L=           0  read in
    real space projection operators read in
  non local Contribution for L=           1  read in
    real space projection operators read in
  non local Contribution for L=           1  read in
    real space projection operators read in
    PAW grid and wavefunctions read in
 
   number of l-projection  operators is LMAX  =           6
   number of lm-projection operators is LMMAX =          18
 
 POTCAR:    PAW_PBE Pt 04Feb2005                  
   SHA256 =  3ed90460adef76debcff1cfb73ee1349b515b1a3db03439735b44de3a8db7dc8 Pt
   COPYR  = (c) Copyright 04Feb2005 Georg Kresse                                
   COPYR  = This file is part of the software VASP. Any use, copying, and all ot
   COPYR  = If you do not have a valid VASP license, you may not use, copy or di
   VRHFIN =Pt: s1d9                                                             
   LEXCH  = PE                                                                  
   EATOM  =   729.1176 eV,   53.5886 Ry                                         
                                                                                
   TITEL  = PAW_PBE Pt 04Feb2005                                                
   LULTRA =        F    use ultrasoft PP ?                                      
   IUNSCR =        1    unscreen: 0-lin 1-nonlin 2-no                           
   RPACOR =    2.330    partial core radius                                     
   POMASS =  195.080; ZVAL   =   10.000    mass and valenz                      
   RCORE  =    2.600    outmost cutoff radius                                   
   RWIGS  =    2.750; RWIGS  =    1.455    wigner-seitz radius (au A)           
   ENMAX  =  230.283; ENMIN  =  172.712 eV                                      
   ICORE  =        3    local potential                                         
   LCOR   =        T    correct aug charges                                     
   LPAW   =        T    paw PP                                                  
   EAUG   =  358.966                                                            
   DEXC   =    0.000                                                            
   RMAX   =    2.658    core radius for proj-oper                               
   RAUG   =    1.300    factor for augmentation sphere                          
   RDEP   =    2.761    radius for radial grids                                 
   RDEPT  =    2.203    core radius for aug-charge                              
                                                                                
   Atomic configuration                                                         
   16 entries                                                                   
     n  l   j            E        occ.                                          
     1  0  0.50    -78401.1885   2.0000                                         
     2  0  0.50    -13770.7750   2.0000                                         
     2  1  1.50    -11931.0468   6.0000                                         
     3  0  0.50     -3234.7234   2.0000                                         
     3  1  1.50     -2699.2216   6.0000                                         
     3  2  2.50     -2119.5714  10.0000                                         
     4  0  0.50      -695.1528   2.0000                                         
     4  1  1.50      -519.6034   6.0000                                         
     4  2  2.50      -306.6786  10.0000                                         
     4  3  3.50       -70.1041  14.0000                                         
     5  0  0.50      -101.7747   2.0000                                         
     5  1  1.50       -55.9873   6.0000                                         
     5  2  2.50        -6.1423   9.0000                                         
     6  0  0.50        -5.6573   1.0000                                         
     6  1  1.50        -6.8029   0.0000                                         
     5  3  2.50        -1.3606   0.0000                                         
   Description                                                                  
     l       E           TYP  RCUT    TYP  RCUT                                 
     2     -6.1423404     23  2.500                                             
     2     -7.5029230     23  2.500                                             
     0     -5.6573207     23  2.500                                             
     0      0.7416693     23  2.500                                             
     1     -2.7211652     23  2.600                                             
     1     20.4087390     23  2.600                                             
     3     -1.3605826     23  2.500                                             
  local pseudopotential read in
  partial core-charges read in
  partial kinetic energy density read in
  atomic valenz-charges read in
  non local Contribution for L=           2  read in
    real space projection operators read in
  non local Contribution for L=           2  read in
    real space projection operators read in
  non local Contribution for L=           0  read in
    real space projection operators read in
  non local Contribution for L=           0  read in
    real space projection operators read in
  non local Contribution for L=           1  read in
    real space projection operators read in
  non local Contribution for L=           1  read in
    real space projection operators read in
    PAW grid and wavefunctions read in
 
   number of l-projection  operators is LMAX  =           6
   number of lm-projection operators is LMMAX =          18
 
 POTCAR:    PAW_PBE Au 04Oct2007                  
   SHA256 =  d0044ae04e2bdce24051b198fc5c053d722a5bc6fe3c3b100514a13fc5d2db88 Au
   COPYR  = (c) Copyright 04Oct2007 Georg Kresse                                
   COPYR  = This file is part of the software VASP. Any use, copying, and all ot
   COPYR  = If you do not have a valid VASP license, you may not use, copy or di
   VRHFIN =Au: s1d10                                                            
   LEXCH  = PE                                                                  
   EATOM  =   926.0867 eV,   68.0654 Ry                                         
                                                                                
   TITEL  = PAW_PBE Au 04Oct2007                                                
   LULTRA =        F    use ultrasoft PP ?                                      
   IUNSCR =        1    unscreen: 0-lin 1-nonlin 2-no                           
   RPACOR =    2.330    partial core radius                                     
   POMASS =  196.966; ZVAL   =   11.000    mass and valenz                      
   RCORE  =    2.500    outmost cutoff radius                                   
   RWIGS  =    2.840; RWIGS  =    1.503    wigner-seitz radius (au A)           
   ENMAX  =  229.943; ENMIN  =  172.457 eV                                      
   ICORE  =        3    local potential                                         
   LCOR   =        T    correct aug charges                                     
   LPAW   =        T    paw PP                                                  
   EAUG   =  356.670                                                            
   DEXC   =    0.000                                                            
   RMAX   =    2.562    core radius for proj-oper                               
   RAUG   =    1.300    factor for augmentation sphere                          
   RDEP   =    2.598    radius for radial grids                                 
   RDEPT  =    2.193    core radius for aug-charge                              
                                                                                
   Atomic configuration                                                         
   16 entries                                                                   
     n  l   j            E        occ.                                          
     1  0  0.50    -80748.5001   2.0000                                         
     2  0  0.50    -14244.7466   2.0000                                         
     2  1  1.50    -12310.9591   6.0000                                         
     3  0  0.50     -3362.1768   2.0000                                         
     3  1  1.50     -2801.5463   6.0000                                         
     3  2  2.50     -2203.8206  10.0000                                         
     4  0  0.50      -729.8168   2.0000                                         
     4  1  1.50      -546.0527   6.0000                                         
     4  2  2.50      -325.7302  10.0000                                         
     4  3  3.50       -81.1472  14.0000                                         
     5  0  0.50      -108.3201   2.0000                                         
     5  1  1.50       -59.7479   6.0000                                         
     5  2  2.50        -6.8783  10.0000                                         
     6  0  0.50        -5.7602   1.0000                                         
     6  1  1.50        -6.8029   0.0000                                         
     5  3  2.50        -1.3606   0.0000                                         
   Description                                                                  
     l       E           TYP  RCUT    TYP  RCUT                                 
     2     -6.8782861     23  2.500                                             
     2     -8.2388687     23  2.500                                             
     0     -5.7601759     23  2.500                                             
     0     -0.8493231     23  2.500                                             
     1     -2.7211652     23  2.500                                             
     1     27.2116520     23  2.500                                             
     3     -1.3605826     23  2.500                                             
  local pseudopotential read in
  partial core-charges read in
  partial kinetic energy density read in
  atomic valenz-charges read in
  non local Contribution for L=           2  read in
    real space projection operators read in
  non local Contribution for L=           2  read in
    real space projection operators read in
  non local Contribution for L=           0  read in
    real space projection operators read in
  non local Contribution for L=           0  read in
    real space projection operators read in
  non local Contribution for L=           1  read in
    real space projection operators read in
  non local Contribution for L=           1  read in
    real space projection operators read in
    PAW grid and wavefunctions read in
 
   number of l-projection  operators is LMAX  =           6
   number of lm-projection operators is LMMAX =          18
 
 POTCAR:    PAW_PBE H 15Jun2001                   
   SHA256 =  030f79b5d3ab3cf0e668861823c8fb652ff669f3e15e46930bd03bfd63a607b6 H/
   COPYR  = (c) Copyright 15Jun2001 Georg Kresse                                
   COPYR  = This file is part of the software VASP. Any use, copying, and all ot
   COPYR  = If you do not have a valid VASP license, you may not use, copy or di
   VRHFIN =H: ultrasoft test                                                    
   LEXCH  = PE                                                                  
   EATOM  =    12.4884 eV,    0.9179 Ry                                         
                                                                                
   TITEL  = PAW_PBE H 15Jun2001                                                 
   LULTRA =        F    use ultrasoft PP ?                                      
   IUNSCR =        0    unscreen: 0-lin 1-nonlin 2-no                           
   RPACOR =    0.000    partial core radius                                     
   POMASS =    1.000; ZVAL   =    1.000    mass and valenz                      
   RCORE  =    1.100    outmost cutoff radius                                   
   RWIGS  =    0.700; RWIGS  =    0.370    wigner-seitz radius (au A)           
   ENMAX  =  250.000; ENMIN  =  200.000 eV                                      
   RCLOC  =    0.701    cutoff for local pot                                    
   LCOR   =        T    correct aug charges                                     
   LPAW   =        T    paw PP                                                  
   EAUG   =  400.000                                                            
   RMAX   =    1.123    core radius for proj-oper                               
   RAUG   =    1.200    factor for augmentation sphere                          
   RDEP   =    1.112    radius for radial grids                                 
   RDEPT  =    0.926    core radius for aug-charge                              
                                                                                
   Atomic configuration                                                         
    2 entries                                                                   
     n  l   j            E        occ.                                          
     1  0  0.50        -6.4927   1.0000                                         
     2  1  0.50        -3.4015   0.0000                                         
   Description                                                                  
     l       E           TYP  RCUT    TYP  RCUT                                 
     0     -6.4927494     23  1.100                                             
     0      6.8029130     23  1.100                                             
     1     -4.0817478     23  1.100                                             
  local pseudopotential read in
  atomic valenz-charges read in
  non local Contribution for L=           0  read in
    real space projection operators read in
  non local Contribution for L=           0  read in
    real space projection operators read in
  non local Contribution for L=           1  read in
    real space projection operators read in
    PAW grid and wavefunctions read in
 
   number of l-projection  operators is LMAX  =           3
   number of lm-projection operators is LMMAX =           5
 

 ----------------------------------------------------------------------------- 
|                                                                             |
|  ADVICE TO THIS USER RUNNING 'VASP/VAMP'   (HEAR YOUR MASTER'S VOICE ...):  |
|                                                                             |
|      You have a (more or less) 'large supercell' and for larger cells       |
|      it might be more efficient to use real space projection opertators     |
|      So try LREAL= Auto  in the INCAR   file.                               |
|      Mind:          For very  accurate calculation you might also keep the  |
|      reciprocal projection scheme          (i.e. LREAL=.FALSE.)             |
|                                                                             |
 ----------------------------------------------------------------------------- 

  PAW_PBE Ir 06Sep2000                  :
 energy of atom  1       EATOM= -560.1833
 kinetic energy error for atom=    0.0056 (will be added to EATOM!!)
  PAW_PBE Pt 04Feb2005                  :
 energy of atom  2       EATOM= -729.1176
 kinetic energy error for atom=    0.0144 (will be added to EATOM!!)
  PAW_PBE Au 04Oct2007                  :
 energy of atom  3       EATOM= -926.0867
 kinetic energy error for atom=    0.0152 (will be added to EATOM!!)
  PAW_PBE H 15Jun2001                   :
 energy of atom  4       EATOM=  -12.4884
 kinetic energy error for atom=    0.0203 (will be added to EATOM!!)
 
 
 POSCAR: Ir Pt Au  H                             
  positions in cartesian coordinates
  No initial velocities read in
 exchange correlation table for  LEXCH =        8
   RHO(1)=    0.500       N(1)  =     2000
   RHO(2)=  100.500       N(2)  =     4000
 


--------------------------------------------------------------------------------------------------------


 ion  position               nearest neighbor table
   1  0.000  0.000  0.390-   3 2.78   3 2.78   4 2.78   4 2.78   2 2.78   2 2.78   5 2.84   7 2.84
                             6 2.84
   2  0.500  0.000  0.390-   4 2.78   3 2.78   4 2.78   3 2.78   1 2.78   1 2.78   8 2.81   6 2.84
                             5 2.84
   3  0.000  0.500  0.390-   1 2.78   1 2.78   2 2.78   2 2.78   4 2.78   4 2.78   8 2.81   7 2.84
                             5 2.84
   4  0.500  0.500  0.390-   2 2.78   1 2.78   2 2.78   1 2.78   3 2.78   3 2.78   8 2.81   7 2.84
                             6 2.84
   5  0.167  0.167  0.465-   7 2.78   6 2.78   8 2.78   8 2.78   7 2.78   6 2.78  12 2.80   9 2.80
                            10 2.80   1 2.84   3 2.84   2 2.84
   6  0.667  0.167  0.465-   7 2.78   5 2.78   8 2.78   8 2.78   7 2.78   5 2.78  11 2.80   9 2.80
                            10 2.80   1 2.84   2 2.84   4 2.84
   7  0.167  0.667  0.465-   5 2.78   6 2.78   8 2.78   8 2.78   6 2.78   5 2.78  11 2.80  12 2.80
                            10 2.80   1 2.84   3 2.84   4 2.84
   8  0.667  0.667  0.464-   6 2.78   7 2.78   5 2.78   5 2.78   6 2.78   7 2.78   4 2.81   3 2.81
                             2 2.81   9 2.84  12 2.84  11 2.84
   9  0.834  0.332  0.540-  11 2.77  12 2.77  10 2.78  10 2.78  12 2.79  11 2.79   5 2.80   6 2.80
                            15 2.81  16 2.81   8 2.84  13 2.91
  10  0.333  0.333  0.540-  11 2.78  11 2.78  12 2.78  12 2.78   9 2.78   9 2.78   6 2.80   7 2.80
                             5 2.80  14 2.82  15 2.82  16 2.82
  11  0.834  0.834  0.540-   9 2.77  12 2.77  10 2.78  10 2.78   9 2.79  12 2.79   6 2.80   7 2.80
                            14 2.81  16 2.81   8 2.84  13 2.91
  12  0.332  0.834  0.540-   9 2.77  11 2.77  10 2.78  10 2.78   9 2.79  11 2.79   5 2.80   7 2.80
                            15 2.81  14 2.81   8 2.84  13 2.91
  13  0.000  0.000  0.619-  17 1.56  16 2.78  14 2.78  15 2.78  15 2.78  16 2.78  14 2.78  11 2.91
                            12 2.91   9 2.91
  14  0.500  0.999  0.615-  15 2.77  16 2.77  13 2.78  13 2.78  16 2.79  15 2.79  12 2.81  11 2.81
                            10 2.82
  15  0.500  0.500  0.615-  14 2.77  16 2.77  13 2.78  13 2.78  14 2.79  16 2.79   9 2.81  12 2.81
                            10 2.82
  16  0.999  0.500  0.615-  14 2.77  15 2.77  13 2.78  13 2.78  14 2.79  15 2.79   9 2.81  11 2.81
                            10 2.82
  17  0.000  0.000  0.670-  13 1.56
 
  LATTYP: Found a hexagonal cell.
 ALAT       =     5.5578593001
 C/A-ratio  =     5.5429542221
  
  Lattice vectors:
  
 A1 = (   2.7789296501,  -4.8132473446,   0.0000000000)
 A2 = (  -5.5578593001,   0.0000000000,   0.0000000000)
 A3 = (   0.0000000000,   0.0000000000, -30.8069596737)


Analysis of symmetry for initial positions (statically):
=====================================================================
 Subroutine PRICEL returns:
 Original cell was already a primitive cell.
 

 Routine SETGRP: Setting up the symmetry group for a 
 hexagonal supercell.


 Subroutine GETGRP returns: Found  2 space group operations
 (whereof  2 operations were pure point group operations)
 out of a pool of 24 trial point group operations.


The static configuration has the point symmetry C_1h.


Analysis of symmetry for dynamics (positions and initial velocities):
=====================================================================
 Subroutine PRICEL returns:
 Original cell was already a primitive cell.
 

 Routine SETGRP: Setting up the symmetry group for a 
 hexagonal supercell.


 Subroutine GETGRP returns: Found  2 space group operations
 (whereof  2 operations were pure point group operations)
 out of a pool of 24 trial point group operations.


The dynamic configuration has the point symmetry C_1h.


Analysis of constrained symmetry for selective dynamics:
=====================================================================
 Subroutine PRICEL returns:
 Original cell was already a primitive cell.
 

 Routine SETGRP: Setting up the symmetry group for a 
 hexagonal supercell.


 Subroutine GETGRP returns: Found  2 space group operations
 (whereof  2 operations were pure point group operations)
 out of a pool of 24 trial point group operations.


The constrained configuration has the point symmetry C_1h.


 Subroutine INISYM returns: Found  2 space group operations
 (whereof  2 operations are pure point group operations),
 and found     1 'primitive' translations

 
 
 KPOINTS: KPOINTS created by Atomic Simulation Env

Automatic generation of k-mesh.
Space group operators:
 irot       det(A)        alpha          n_x          n_y          n_z        tau_x        tau_y        tau_z
    1     1.000000     0.000001     1.000000     0.000000     0.000000     0.000000     0.000000     0.000000
    2    -1.000000   180.000000    -0.500000    -0.866025     0.000000     0.000000     0.000000     0.000000
 
 Subroutine IBZKPT returns following result:
 ===========================================
 
 Found     52 irreducible k-points:
 
 Following reciprocal coordinates:
            Coordinates               Weight
  0.062500  0.062500  0.000000     32.000000
 -0.062500  0.000000  0.000000     16.000000
  0.187500  0.062500  0.000000     32.000000
  0.125000  0.187500  0.000000     32.000000
 -0.062500  0.125000  0.000000     32.000000
  0.312500  0.062500  0.000000     32.000000
  0.250000  0.312500  0.000000     32.000000
 -0.062500  0.250000  0.000000     32.000000
  0.437500  0.062500  0.000000     32.000000
  0.375000  0.437500  0.000000     32.000000
 -0.062500  0.375000  0.000000     32.000000
 -0.437500  0.062500  0.000000     32.000000
  0.500000 -0.437500  0.000000     32.000000
 -0.062500  0.500000  0.000000     32.000000
 -0.312500  0.062500  0.000000     32.000000
 -0.375000 -0.312500  0.000000     32.000000
 -0.062500 -0.375000  0.000000     32.000000
 -0.187500  0.062500  0.000000     32.000000
 -0.250000 -0.187500  0.000000     32.000000
 -0.062500 -0.250000  0.000000     32.000000
 -0.062500  0.062500  0.000000     32.000000
 -0.062500 -0.125000  0.000000     16.000000
  0.187500  0.187500  0.000000     32.000000
 -0.187500  0.000000  0.000000     16.000000
  0.312500  0.187500  0.000000     32.000000
  0.125000  0.312500  0.000000     32.000000
 -0.187500  0.125000  0.000000     32.000000
  0.437500  0.187500  0.000000     32.000000
  0.250000  0.437500  0.000000     32.000000
 -0.187500  0.250000  0.000000     32.000000
 -0.437500  0.187500  0.000000     32.000000
  0.375000 -0.437500  0.000000     32.000000
 -0.187500  0.375000  0.000000     32.000000
 -0.312500  0.187500  0.000000     32.000000
  0.500000 -0.312500  0.000000     32.000000
 -0.187500  0.500000  0.000000     32.000000
 -0.187500  0.187500  0.000000     32.000000
 -0.187500 -0.375000  0.000000     16.000000
  0.312500  0.312500  0.000000     32.000000
 -0.312500  0.000000  0.000000     16.000000
  0.437500  0.312500  0.000000     32.000000
  0.125000  0.437500  0.000000     32.000000
 -0.312500  0.125000  0.000000     32.000000
 -0.437500  0.312500  0.000000     32.000000
  0.250000 -0.437500  0.000000     32.000000
 -0.312500  0.250000  0.000000     32.000000
 -0.312500  0.312500  0.000000     32.000000
 -0.312500  0.375000  0.000000     16.000000
  0.437500  0.437500  0.000000     32.000000
 -0.437500  0.000000  0.000000     16.000000
 -0.437500  0.437500  0.000000     32.000000
 -0.437500  0.125000  0.000000     16.000000
 
 Following cartesian coordinates:
            Coordinates               Weight
  0.011245  0.006492  0.000000     32.000000
 -0.011245  0.006492  0.000000     16.000000
  0.033736 -0.006492  0.000000     32.000000
  0.022491  0.025970  0.000000     32.000000
 -0.011245  0.032462  0.000000     32.000000
  0.056227 -0.019477  0.000000     32.000000
  0.044981  0.038955  0.000000     32.000000
 -0.011245  0.058432  0.000000     32.000000
  0.078717 -0.032462  0.000000     32.000000
  0.067472  0.051940  0.000000     32.000000
 -0.011245  0.084402  0.000000     32.000000
 -0.078717  0.058432  0.000000     32.000000
  0.089963 -0.142835  0.000000     32.000000
 -0.011245  0.110372  0.000000     32.000000
 -0.056227  0.045447  0.000000     32.000000
 -0.067472 -0.025970  0.000000     32.000000
 -0.011245 -0.071417  0.000000     32.000000
 -0.033736  0.032462  0.000000     32.000000
 -0.044981 -0.012985  0.000000     32.000000
 -0.011245 -0.045447  0.000000     32.000000
 -0.011245  0.019477  0.000000     32.000000
 -0.011245 -0.019477  0.000000     16.000000
  0.033736  0.019477  0.000000     32.000000
 -0.033736  0.019477  0.000000     16.000000
  0.056227  0.006492  0.000000     32.000000
  0.022491  0.051940  0.000000     32.000000
 -0.033736  0.045447  0.000000     32.000000
  0.078717 -0.006492  0.000000     32.000000
  0.044981  0.064925  0.000000     32.000000
 -0.033736  0.071417  0.000000     32.000000
 -0.078717  0.084402  0.000000     32.000000
  0.067472 -0.129850  0.000000     32.000000
 -0.033736  0.097387  0.000000     32.000000
 -0.056227  0.071417  0.000000     32.000000
  0.089963 -0.116865  0.000000     32.000000
 -0.033736  0.123357  0.000000     32.000000
 -0.033736  0.058432  0.000000     32.000000
 -0.033736 -0.058432  0.000000     16.000000
  0.056227  0.032462  0.000000     32.000000
 -0.056227  0.032462  0.000000     16.000000
  0.078717  0.019477  0.000000     32.000000
  0.022491  0.077910  0.000000     32.000000
 -0.056227  0.058432  0.000000     32.000000
 -0.078717  0.110372  0.000000     32.000000
  0.044981 -0.116865  0.000000     32.000000
 -0.056227  0.084402  0.000000     32.000000
 -0.056227  0.097387  0.000000     32.000000
 -0.056227  0.110372  0.000000     16.000000
  0.078717  0.045447  0.000000     32.000000
 -0.078717  0.045447  0.000000     16.000000
 -0.078717  0.136342  0.000000     32.000000
 -0.078717  0.071417  0.000000     16.000000
 


--------------------------------------------------------------------------------------------------------




 Dimension of arrays:
   k-points           NKPTS =     52   k-points in BZ     NKDIM =     52   number of bands    NBANDS=     96
   number of dos      NEDOS =    301   number of ions     NIONS =     17
   non local maximal  LDIM  =      6   non local SUM 2l+1 LMDIM =     18
   total plane-waves  NPLWV = 112896
   max r-space proj   IRMAX =      1   max aug-charges    IRDMAX=  10104
   dimension x,y,z NGX =    28 NGY =   28 NGZ =  144
   dimension x,y,z NGXF=    56 NGYF=   56 NGZF=  288
   support grid    NGXF=    56 NGYF=   56 NGZF=  288
   ions per type =               1  14   1   1
   NGX,Y,Z   is equivalent  to a cutoff of   8.38,  8.38,  7.77 a.u.
   NGXF,Y,Z  is equivalent  to a cutoff of  16.75, 16.75, 15.54 a.u.

 SYSTEM =  unknown system                          
 POSCAR =  Ir Pt Au  H                             

 Startparameter for this run:
   NWRITE =      2    write-flag & timer
   PREC   = normal    normal or accurate (medium, high low for compatibility)
   ISTART =      0    job   : 0-new  1-cont  2-samecut
   ICHARG =      2    charge: 1-file 2-atom 10-const
   ISPIN  =      1    spin polarized calculation?
   LNONCOLLINEAR =      F non collinear calculations
   LSORBIT =      F    spin-orbit coupling
   INIWAV =      1    electr: 0-lowe 1-rand  2-diag
   LASPH  =      F    aspherical Exc in radial PAW
   METAGGA=      F    non-selfconsistent MetaGGA calc.

 Electronic Relaxation 1
   ENCUT  =  350.0 eV  25.72 Ry    5.07 a.u.   8.48  8.48 46.99*2*pi/ulx,y,z
   ENINI  =  350.0     initial cutoff
   ENAUG  =  400.0 eV  augmentation charge cutoff
   NELM   =     60;   NELMIN=  2; NELMDL= -5     # of ELM steps 
   EDIFF  = 0.1E-04   stopping-criterion for ELM
   LREAL  =      F    real-space projection
   NLSPLINE    = F    spline interpolate recip. space projectors
   LCOMPAT=      F    compatible to vasp.4.4
   GGA_COMPAT  = T    GGA compatible to vasp.4.4-vasp.4.6
   LMAXPAW     = -100 max onsite density
   LMAXMIX     =    2 max onsite mixed and CHGCAR
   VOSKOWN=      0    Vosko Wilk Nusair interpolation
   ROPT   =    0.00000   0.00000   0.00000   0.00000
 Ionic relaxation
   EDIFFG = -.5E-01   stopping-criterion for IOM
   NSW    =      0    number of steps for IOM
   NBLOCK =      1;   KBLOCK =      1    inner block; outer block 
   IBRION =     -1    ionic relax: 0-MD 1-quasi-New 2-CG
   NFREE  =      1    steps in history (QN), initial steepest desc. (CG)
   ISIF   =      2    stress and relaxation
   IWAVPR =     10    prediction:  0-non 1-charg 2-wave 3-comb
   ISYM   =      2    0-nonsym 1-usesym 2-fastsym
   LCORR  =      T    Harris-Foulkes like correction to forces

   POTIM  = 0.5000    time-step for ionic-motion
   TEIN   =    0.0    initial temperature
   TEBEG  =    0.0;   TEEND  =   0.0 temperature during run
   SMASS  =  -3.00    Nose mass-parameter (am)
   estimated Nose-frequenzy (Omega)   =  0.10E-29 period in steps =****** mass=  -0.706E-27a.u.
   SCALEE = 1.0000    scale energy and forces
   NPACO  =    256;   APACO  = 16.0  distance and # of slots for P.C.
   PSTRESS=    0.0 pullay stress

  Mass of Ions in am
   POMASS = 192.22195.08196.97  1.00
  Ionic Valenz
   ZVAL   =   9.00 10.00 11.00  1.00
  Atomic Wigner-Seitz radii
   RWIGS  =  -1.00 -1.00 -1.00 -1.00
  virtual crystal weights 
   VCA    =   1.00  1.00  1.00  1.00
   NELECT =     161.0000    total number of electrons
   NUPDOWN=      -1.0000    fix difference up-down

 DOS related values:
   EMIN   =  10.00;   EMAX   =-10.00  energy-range for DOS
   EFERMI =   0.00
   ISMEAR =     1;   SIGMA  =   0.20  broadening in eV -4-tet -1-fermi 0-gaus

 Electronic relaxation 2 (details)
   IALGO  =     38    algorithm
   LDIAG  =      T    sub-space diagonalisation (order eigenvalues)
   LSUBROT=      F    optimize rotation matrix (better conditioning)
   TURBO    =      0    0=normal 1=particle mesh
   IRESTART =      0    0=no restart 2=restart with 2 vectors
   NREBOOT  =      0    no. of reboots
   NMIN     =      0    reboot dimension
   EREF     =   0.00    reference energy to select bands
   IMIX   =      4    mixing-type and parameters
     AMIX     =   0.40;   BMIX     =  1.00
     AMIX_MAG =   1.60;   BMIX_MAG =  1.00
     AMIN     =   0.10
     WC   =   100.;   INIMIX=   1;  MIXPRE=   1;  MAXMIX= -45

 Intra band minimization:
   WEIMIN = 0.0000     energy-eigenvalue tresh-hold
   EBREAK =  0.26E-07  absolut break condition
   DEPER  =   0.30     relativ break condition  

   TIME   =   0.40     timestep for ELM

  volume/ion in A,a.u.               =      48.48       327.15
  Fermi-wavevector in a.u.,A,eV,Ry     =   0.949916  1.795081 12.277090  0.902341
  Thomas-Fermi vector in A             =   2.078244
 
 Write flags
   LWAVE        =      F    write WAVECAR
   LDOWNSAMPLE  =      F    k-point downsampling of WAVECAR
   LCHARG       =      F    write CHGCAR
   LVTOT        =      F    write LOCPOT, total local potential
   LVHAR        =      F    write LOCPOT, Hartree potential only
   LELF         =      F    write electronic localiz. function (ELF)
   LORBIT       =      0    0 simple, 1 ext, 2 COOP (PROOUT), +10 PAW based schemes


 Dipole corrections
   LMONO  =      F    monopole corrections only (constant potential shift)
   LDIPOL =      F    correct potential (dipole corrections)
   IDIPOL =      3    1-x, 2-y, 3-z, 4-all directions 
   EPSILON=  1.0000000 bulk dielectric constant

 Exchange correlation treatment:
   GGA     =    PE    GGA type
   LEXCH   =     8    internal setting for exchange type
   VOSKOWN=      0    Vosko Wilk Nusair interpolation
   LHFCALC =     F    Hartree Fock is set to
   LHFONE  =     F    Hartree Fock one center treatment
   AEXX    =    0.0000 exact exchange contribution

 Linear response parameters
   LEPSILON=     F    determine dielectric tensor
   LRPA    =     F    only Hartree local field effects (RPA)
   LNABLA  =     F    use nabla operator in PAW spheres
   LVEL    =     F    velocity operator in full k-point grid
   LINTERFAST=   F  fast interpolation
   KINTER  =     0    interpolate to denser k-point grid
   CSHIFT  =0.1000    complex shift for real part using Kramers Kronig
   OMEGAMAX=  -1.0    maximum frequency
   DEG_THRESHOLD= 0.2000000E-02 threshold for treating states as degnerate
   RTIME   =   -0.100 relaxation time in fs
  (WPLASMAI=    0.000 imaginary part of plasma frequency in eV, 0.658/RTIME)
   DFIELD  = 0.0000000 0.0000000 0.0000000 field for delta impulse in time
 
 Orbital magnetization related:
   ORBITALMAG=     F  switch on orbital magnetization
   LCHIMAG   =     F  perturbation theory with respect to B field
   DQ        =  0.001000  dq finite difference perturbation B field
   LLRAUG    =     F  two centre corrections for induced B field



--------------------------------------------------------------------------------------------------------


 Static calculation
 charge density and potential will be updated during run
 non-spin polarized calculation
 Variant of blocked Davidson
 Davidson routine will perform the subspace rotation
 perform sub-space diagonalisation
    after iterative eigenvector-optimisation
 modified Broyden-mixing scheme, WC =      100.0
 initial mixing is a Kerker type mixing with AMIX =  0.4000 and BMIX =      1.0000
 Hartree-type preconditioning will be used
 using additional bands           15
 reciprocal scheme for non local part
 use partial core corrections
 calculate Harris-corrections to forces 
   (improved forces if not selfconsistent)
 use gradient corrections 
 use of overlap-Matrix (Vanderbilt PP)
 Methfessel and Paxton  Order N= 1 SIGMA  =   0.20


--------------------------------------------------------------------------------------------------------


  energy-cutoff  :      350.00
  volume of cell :      824.13
      direct lattice vectors                 reciprocal lattice vectors
     5.557859300  0.000000000  0.000000000     0.179925390 -0.103879972  0.000000000
     2.778929650  4.813247345  0.000000000     0.000000000  0.207759944  0.000000000
     0.000000000  0.000000000 30.806959674     0.000000000  0.000000000  0.032460198

  length of vectors
     5.557859300  5.557859300 30.806959674     0.207759944  0.207759944  0.032460198


 
 k-points in units of 2pi/SCALE and weight: KPOINTS created by Atomic Simulation Env
   0.01124534  0.00649250  0.00000000       0.021
  -0.01124534  0.00649250  0.00000000       0.010
   0.03373601 -0.00649250  0.00000000       0.021
   0.02249067  0.02596999  0.00000000       0.021
  -0.01124534  0.03246249  0.00000000       0.021
   0.05622668 -0.01947749  0.00000000       0.021
   0.04498135  0.03895499  0.00000000       0.021
  -0.01124534  0.05843248  0.00000000       0.021
   0.07871736 -0.03246249  0.00000000       0.021
   0.06747202  0.05193999  0.00000000       0.021
  -0.01124534  0.08440248  0.00000000       0.021
  -0.07871736  0.05843248  0.00000000       0.021
   0.08996269 -0.14283496  0.00000000       0.021
  -0.01124534  0.11037247  0.00000000       0.021
  -0.05622668  0.04544749  0.00000000       0.021
  -0.06747202 -0.02596999  0.00000000       0.021
  -0.01124534 -0.07141748  0.00000000       0.021
  -0.03373601  0.03246249  0.00000000       0.021
  -0.04498135 -0.01298500  0.00000000       0.021
  -0.01124534 -0.04544749  0.00000000       0.021
  -0.01124534  0.01947749  0.00000000       0.021
  -0.01124534 -0.01947749  0.00000000       0.010
   0.03373601  0.01947749  0.00000000       0.021
  -0.03373601  0.01947749  0.00000000       0.010
   0.05622668  0.00649250  0.00000000       0.021
   0.02249067  0.05193999  0.00000000       0.021
  -0.03373601  0.04544749  0.00000000       0.021
   0.07871736 -0.00649250  0.00000000       0.021
   0.04498135  0.06492498  0.00000000       0.021
  -0.03373601  0.07141748  0.00000000       0.021
  -0.07871736  0.08440248  0.00000000       0.021
   0.06747202 -0.12984997  0.00000000       0.021
  -0.03373601  0.09738747  0.00000000       0.021
  -0.05622668  0.07141748  0.00000000       0.021
   0.08996269 -0.11686497  0.00000000       0.021
  -0.03373601  0.12335747  0.00000000       0.021
  -0.03373601  0.05843248  0.00000000       0.021
  -0.03373601 -0.05843248  0.00000000       0.010
   0.05622668  0.03246249  0.00000000       0.021
  -0.05622668  0.03246249  0.00000000       0.010
   0.07871736  0.01947749  0.00000000       0.021
   0.02249067  0.07790998  0.00000000       0.021
  -0.05622668  0.05843248  0.00000000       0.021
  -0.07871736  0.11037247  0.00000000       0.021
   0.04498135 -0.11686497  0.00000000       0.021
  -0.05622668  0.08440248  0.00000000       0.021
  -0.05622668  0.09738747  0.00000000       0.021
  -0.05622668  0.11037247  0.00000000       0.010
   0.07871736  0.04544749  0.00000000       0.021
  -0.07871736  0.04544749  0.00000000       0.010
  -0.07871736  0.13634246  0.00000000       0.021
  -0.07871736  0.07141748  0.00000000       0.010
 
 k-points in reciprocal lattice and weights: KPOINTS created by Atomic Simulation Env
   0.06250000  0.06250000  0.00000000       0.021
  -0.06250000  0.00000000  0.00000000       0.010
   0.18750000  0.06250000  0.00000000       0.021
   0.12500000  0.18750000  0.00000000       0.021
  -0.06250000  0.12500000  0.00000000       0.021
   0.31250000  0.06250000  0.00000000       0.021
   0.25000000  0.31250000  0.00000000       0.021
  -0.06250000  0.25000000  0.00000000       0.021
   0.43750000  0.06250000  0.00000000       0.021
   0.37500000  0.43750000  0.00000000       0.021
  -0.06250000  0.37500000  0.00000000       0.021
  -0.43750000  0.06250000  0.00000000       0.021
   0.50000000 -0.43750000  0.00000000       0.021
  -0.06250000  0.50000000  0.00000000       0.021
  -0.31250000  0.06250000  0.00000000       0.021
  -0.37500000 -0.31250000  0.00000000       0.021
  -0.06250000 -0.37500000  0.00000000       0.021
  -0.18750000  0.06250000  0.00000000       0.021
  -0.25000000 -0.18750000  0.00000000       0.021
  -0.06250000 -0.25000000  0.00000000       0.021
  -0.06250000  0.06250000  0.00000000       0.021
  -0.06250000 -0.12500000  0.00000000       0.010
   0.18750000  0.18750000  0.00000000       0.021
  -0.18750000  0.00000000  0.00000000       0.010
   0.31250000  0.18750000  0.00000000       0.021
   0.12500000  0.31250000  0.00000000       0.021
  -0.18750000  0.12500000  0.00000000       0.021
   0.43750000  0.18750000  0.00000000       0.021
   0.25000000  0.43750000  0.00000000       0.021
  -0.18750000  0.25000000  0.00000000       0.021
  -0.43750000  0.18750000  0.00000000       0.021
   0.37500000 -0.43750000  0.00000000       0.021
  -0.18750000  0.37500000  0.00000000       0.021
  -0.31250000  0.18750000  0.00000000       0.021
   0.50000000 -0.31250000  0.00000000       0.021
  -0.18750000  0.50000000  0.00000000       0.021
  -0.18750000  0.18750000  0.00000000       0.021
  -0.18750000 -0.37500000  0.00000000       0.010
   0.31250000  0.31250000  0.00000000       0.021
  -0.31250000  0.00000000  0.00000000       0.010
   0.43750000  0.31250000  0.00000000       0.021
   0.12500000  0.43750000  0.00000000       0.021
  -0.31250000  0.12500000  0.00000000       0.021
  -0.43750000  0.31250000  0.00000000       0.021
   0.25000000 -0.43750000  0.00000000       0.021
  -0.31250000  0.25000000  0.00000000       0.021
  -0.31250000  0.31250000  0.00000000       0.021
  -0.31250000  0.37500000  0.00000000       0.010
   0.43750000  0.43750000  0.00000000       0.021
  -0.43750000  0.00000000  0.00000000       0.010
  -0.43750000  0.43750000  0.00000000       0.021
  -0.43750000  0.12500000  0.00000000       0.010
 
 position of ions in fractional coordinates (direct lattice) 
   0.00000000  0.00000000  0.38952237
   0.50000000  0.00000000  0.38952237
   0.00000000  0.50000000  0.38952237
   0.50000000  0.50000000  0.38952237
   0.16652883  0.16652883  0.46542487
   0.66694234  0.16652883  0.46542487
   0.16652883  0.66694234  0.46542487
   0.66666667  0.66666667  0.46426737
   0.83396869  0.33206261  0.54005199
   0.33333333  0.33333333  0.53994492
   0.83396869  0.83396869  0.54005199
   0.33206261  0.83396869  0.54005199
   0.00000000  0.00000000  0.61904352
   0.50048728  0.99902544  0.61498914
   0.50048728  0.50048728  0.61498914
   0.99902544  0.50048728  0.61498914
   0.00000000  0.00000000  0.66953436
 
 position of ions in cartesian coordinates  (Angst):
   0.00000000  0.00000000 12.00000000
   2.77892965  0.00000000 12.00000000
   1.38946483  2.40662367 12.00000000
   4.16839448  2.40662367 12.00000000
   1.38831573  0.80154446 14.33832516
   4.16954357  0.80154446 14.33832516
   2.77892965  3.21015843 14.33832516
   5.55785930  3.20883156 14.30266626
   5.55785930  1.59829948 16.63736001
   2.77892965  1.60441578 16.63406129
   6.95262100  4.01409760 16.63736001
   4.16309760  4.01409760 16.63736001
   0.00000000  0.00000000 19.07084875
   5.55785930  4.80855657 18.94594552
   4.17245681  2.40896906 18.94594552
   6.94326179  2.40896906 18.94594552
   0.00000000  0.00000000 20.62631794
 


--------------------------------------------------------------------------------------------------------


 k-point  1 :   0.0625 0.0625 0.0000  plane waves:   12325
 k-point  2 :  -0.0625 0.0000 0.0000  plane waves:   12325
 k-point  3 :   0.1875 0.0625 0.0000  plane waves:   12294
 k-point  4 :   0.1250 0.1875 0.0000  plane waves:   12294
 k-point  5 :  -0.0625 0.1250 0.0000  plane waves:   12294
 k-point  6 :   0.3125 0.0625 0.0000  plane waves:   12263
 k-point  7 :   0.2500 0.3125 0.0000  plane waves:   12263
 k-point  8 :  -0.0625 0.2500 0.0000  plane waves:   12263
 k-point  9 :   0.4375 0.0625 0.0000  plane waves:   12221
 k-point 10 :   0.3750 0.4375 0.0000  plane waves:   12221
 k-point 11 :  -0.0625 0.3750 0.0000  plane waves:   12221
 k-point 12 :  -0.4375 0.0625 0.0000  plane waves:   12211
 k-point 13 :   0.5000-0.4375 0.0000  plane waves:   12211
 k-point 14 :  -0.0625 0.5000 0.0000  plane waves:   12211
 k-point 15 :  -0.3125 0.0625 0.0000  plane waves:   12242
 k-point 16 :  -0.3750-0.3125 0.0000  plane waves:   12242
 k-point 17 :  -0.0625-0.3750 0.0000  plane waves:   12242
 k-point 18 :  -0.1875 0.0625 0.0000  plane waves:   12280
 k-point 19 :  -0.2500-0.1875 0.0000  plane waves:   12280
 k-point 20 :  -0.0625-0.2500 0.0000  plane waves:   12280
 k-point 21 :  -0.0625 0.0625 0.0000  plane waves:   12329
 k-point 22 :  -0.0625-0.1250 0.0000  plane waves:   12329
 k-point 23 :   0.1875 0.1875 0.0000  plane waves:   12277
 k-point 24 :  -0.1875 0.0000 0.0000  plane waves:   12277
 k-point 25 :   0.3125 0.1875 0.0000  plane waves:   12288
 k-point 26 :   0.1250 0.3125 0.0000  plane waves:   12288
 k-point 27 :  -0.1875 0.1250 0.0000  plane waves:   12288
 k-point 28 :   0.4375 0.1875 0.0000  plane waves:   12234
 k-point 29 :   0.2500 0.4375 0.0000  plane waves:   12234
 k-point 30 :  -0.1875 0.2500 0.0000  plane waves:   12234
 k-point 31 :  -0.4375 0.1875 0.0000  plane waves:   12216
 k-point 32 :   0.3750-0.4375 0.0000  plane waves:   12216
 k-point 33 :  -0.1875 0.3750 0.0000  plane waves:   12216
 k-point 34 :  -0.3125 0.1875 0.0000  plane waves:   12215
 k-point 35 :   0.5000-0.3125 0.0000  plane waves:   12215
 k-point 36 :  -0.1875 0.5000 0.0000  plane waves:   12215
 k-point 37 :  -0.1875 0.1875 0.0000  plane waves:   12289
 k-point 38 :  -0.1875-0.3750 0.0000  plane waves:   12289
 k-point 39 :   0.3125 0.3125 0.0000  plane waves:   12275
 k-point 40 :  -0.3125 0.0000 0.0000  plane waves:   12275
 k-point 41 :   0.4375 0.3125 0.0000  plane waves:   12239
 k-point 42 :   0.1250 0.4375 0.0000  plane waves:   12239
 k-point 43 :  -0.3125 0.1250 0.0000  plane waves:   12239
 k-point 44 :  -0.4375 0.3125 0.0000  plane waves:   12235
 k-point 45 :   0.2500-0.4375 0.0000  plane waves:   12235
 k-point 46 :  -0.3125 0.2500 0.0000  plane waves:   12235
 k-point 47 :  -0.3125 0.3125 0.0000  plane waves:   12232
 k-point 48 :  -0.3125 0.3750 0.0000  plane waves:   12232
 k-point 49 :   0.4375 0.4375 0.0000  plane waves:   12200
 k-point 50 :  -0.4375 0.0000 0.0000  plane waves:   12200
 k-point 51 :  -0.4375 0.4375 0.0000  plane waves:   12214
 k-point 52 :  -0.4375 0.1250 0.0000  plane waves:   12214

 maximum and minimum number of plane-waves per node :     12329    12200

 maximum number of plane-waves:     12329
 maximum index in each direction: 
   IXMAX=    8   IYMAX=    8   IZMAX=   46
   IXMIN=   -8   IYMIN=   -8   IZMIN=  -46


 serial   3D FFT for wavefunctions
 parallel 3D FFT for charge:
    minimum data exchange during FFTs selected (reduces bandwidth)


 total amount of memory used by VASP MPI-rank0   455244. kBytes
=======================================================================

   base      :      30000. kBytes
   nonl-proj :     372843. kBytes
   fftplans  :       2015. kBytes
   grid      :       8030. kBytes
   one-center:        264. kBytes
   wavefun   :      42092. kBytes
 
     INWAV:  cpu time    0.0000: real time    0.0000
 Broyden mixing: mesh for mixing (old mesh)
   NGX = 17   NGY = 17   NGZ = 93
  (NGX  = 56   NGY  = 56   NGZ  =288)
  gives a total of  26877 points

 initial charge density was supplied:
 charge density of overlapping atoms calculated
 number of electron     161.0000000 magnetization 
 keeping initial charge density in first step


--------------------------------------------------------------------------------------------------------


 Maximum index for augmentation-charges          824 (set IRDMAX)


--------------------------------------------------------------------------------------------------------


 First call to EWALD:  gamma=   0.189
 Maximum number of real-space cells 5x 5x 1
 Maximum number of reciprocal cells 2x 2x 8

    FEWALD:  cpu time    0.0012: real time    0.0012


--------------------------------------- Iteration      1(   1)  ---------------------------------------


    POTLOK:  cpu time    0.0197: real time    0.0262
    SETDIJ:  cpu time    0.0023: real time    0.0023
     EDDAV:  cpu time    9.1929: real time    9.1949
       DOS:  cpu time    0.0017: real time    0.0017
    --------------------------------------------
      LOOP:  cpu time    9.2166: real time    9.2251

 eigenvalue-minimisations  :  9984
 total energy-change (2. order) : 0.9797946E+03  (-0.5575227E+04)
 number of electron     161.0000000 magnetization 
 augmentation part      161.0000000 magnetization 

 Free energy of the ion-electron system (eV)
  ---------------------------------------------------
  alpha Z        PSCENC =       305.89839443
  Ewald energy   TEWEN  =     98604.44224264
  -Hartree energ DENC   =   -110691.80483528
  -exchange      EXHF   =         0.00000000
  -V(xc)+E(xc)   XCENC  =        48.78042592
  PAW double counting   =     11173.35063782   -10713.98924482
  entropy T*S    EENTRO =         0.00416917
  eigenvalues    EBANDS =       546.95045996
  atomic energy  EATOM  =     11706.16234457
  Solvation  Ediel_sol  =         0.00000000
  ---------------------------------------------------
  free energy    TOTEN  =       979.79459440 eV

  energy without entropy =      979.79042524  energy(sigma->0) =      979.79320468


--------------------------------------------------------------------------------------------------------




--------------------------------------- Iteration      1(   2)  ---------------------------------------


     EDDAV:  cpu time   13.0949: real time   13.0969
       DOS:  cpu time    0.0017: real time    0.0016
    --------------------------------------------
      LOOP:  cpu time   13.0965: real time   13.0985

 eigenvalue-minimisations  : 14520
 total energy-change (2. order) :-0.1022233E+04  (-0.9920828E+03)
 number of electron     161.0000000 magnetization 
 augmentation part      161.0000000 magnetization 

 Free energy of the ion-electron system (eV)
  ---------------------------------------------------
  alpha Z        PSCENC =       305.89839443
  Ewald energy   TEWEN  =     98604.44224264
  -Hartree energ DENC   =   -110691.80483528
  -exchange      EXHF   =         0.00000000
  -V(xc)+E(xc)   XCENC  =        48.78042592
  PAW double counting   =     11173.35063782   -10713.98924482
  entropy T*S    EENTRO =        -0.00859738
  eigenvalues    EBANDS =      -475.26966659
  atomic energy  EATOM  =     11706.16234457
  Solvation  Ediel_sol  =         0.00000000
  ---------------------------------------------------
  free energy    TOTEN  =       -42.43829870 eV

  energy without entropy =      -42.42970132  energy(sigma->0) =      -42.43543291


--------------------------------------------------------------------------------------------------------




--------------------------------------- Iteration      1(   3)  ---------------------------------------


     EDDAV:  cpu time   11.3032: real time   11.3047
       DOS:  cpu time    0.0017: real time    0.0017
    --------------------------------------------
      LOOP:  cpu time   11.3049: real time   11.3064

 eigenvalue-minimisations  : 12504
 total energy-change (2. order) :-0.5878696E+02  (-0.5705478E+02)
 number of electron     161.0000000 magnetization 
 augmentation part      161.0000000 magnetization 

 Free energy of the ion-electron system (eV)
  ---------------------------------------------------
  alpha Z        PSCENC =       305.89839443
  Ewald energy   TEWEN  =     98604.44224264
  -Hartree energ DENC   =   -110691.80483528
  -exchange      EXHF   =         0.00000000
  -V(xc)+E(xc)   XCENC  =        48.78042592
  PAW double counting   =     11173.35063782   -10713.98924482
  entropy T*S    EENTRO =        -0.02750597
  eigenvalues    EBANDS =      -534.03771335
  atomic energy  EATOM  =     11706.16234457
  Solvation  Ediel_sol  =         0.00000000
  ---------------------------------------------------
  free energy    TOTEN  =      -101.22525405 eV

  energy without entropy =     -101.19774808  energy(sigma->0) =     -101.21608540


--------------------------------------------------------------------------------------------------------




--------------------------------------- Iteration      1(   4)  ---------------------------------------


     EDDAV:  cpu time   12.6609: real time   12.6679
       DOS:  cpu time    0.0018: real time    0.0018
    --------------------------------------------
      LOOP:  cpu time   12.6627: real time   12.6697

 eigenvalue-minimisations  : 14256
 total energy-change (2. order) :-0.1284867E+01  (-0.1278811E+01)
 number of electron     161.0000000 magnetization 
 augmentation part      161.0000000 magnetization 

 Free energy of the ion-electron system (eV)
  ---------------------------------------------------
  alpha Z        PSCENC =       305.89839443
  Ewald energy   TEWEN  =     98604.44224264
  -Hartree energ DENC   =   -110691.80483528
  -exchange      EXHF   =         0.00000000
  -V(xc)+E(xc)   XCENC  =        48.78042592
  PAW double counting   =     11173.35063782   -10713.98924482
  entropy T*S    EENTRO =        -0.02732027
  eigenvalues    EBANDS =      -535.32276652
  atomic energy  EATOM  =     11706.16234457
  Solvation  Ediel_sol  =         0.00000000
  ---------------------------------------------------
  free energy    TOTEN  =      -102.51012151 eV

  energy without entropy =     -102.48280125  energy(sigma->0) =     -102.50101476


--------------------------------------------------------------------------------------------------------




--------------------------------------- Iteration      1(   5)  ---------------------------------------


     EDDAV:  cpu time   13.5472: real time   13.5495
       DOS:  cpu time    0.0018: real time    0.0018
    CHARGE:  cpu time    0.3171: real time    0.3171
    MIXING:  cpu time    0.0011: real time    0.0011
    --------------------------------------------
      LOOP:  cpu time   13.8671: real time   13.8695

 eigenvalue-minimisations  : 15192
 total energy-change (2. order) :-0.3372167E-01  (-0.3370612E-01)
 number of electron     161.0000053 magnetization 
 augmentation part       46.8725598 magnetization 

 Broyden mixing:
  rms(total) = 0.41849E+01    rms(broyden)= 0.41848E+01
  rms(prec ) = 0.42169E+01
  weight for this iteration     100.00

 Free energy of the ion-electron system (eV)
  ---------------------------------------------------
  alpha Z        PSCENC =       305.89839443
  Ewald energy   TEWEN  =     98604.44224264
  -Hartree energ DENC   =   -110691.80483528
  -exchange      EXHF   =         0.00000000
  -V(xc)+E(xc)   XCENC  =        48.78042592
  PAW double counting   =     11173.35063782   -10713.98924482
  entropy T*S    EENTRO =        -0.02731326
  eigenvalues    EBANDS =      -535.35649520
  atomic energy  EATOM  =     11706.16234457
  Solvation  Ediel_sol  =         0.00000000
  ---------------------------------------------------
  free energy    TOTEN  =      -102.54384318 eV

  energy without entropy =     -102.51652992  energy(sigma->0) =     -102.53473876


--------------------------------------------------------------------------------------------------------




--------------------------------------- Iteration      1(   6)  ---------------------------------------


    POTLOK:  cpu time    0.0178: real time    0.0211
    SETDIJ:  cpu time    0.0021: real time    0.0021
     EDDAV:  cpu time   10.8280: real time   10.8293
       DOS:  cpu time    0.0018: real time    0.0018
    CHARGE:  cpu time    0.3177: real time    0.3177
    MIXING:  cpu time    0.0008: real time    0.0008
    --------------------------------------------
      LOOP:  cpu time   11.1682: real time   11.1728

 eigenvalue-minimisations  : 12000
 total energy-change (2. order) : 0.4211447E+01  (-0.3372645E+01)
 number of electron     161.0000047 magnetization 
 augmentation part       49.5727338 magnetization 

 Broyden mixing:
  rms(total) = 0.30481E+01    rms(broyden)= 0.30481E+01
  rms(prec ) = 0.31682E+01
  weight for this iteration     100.00

 eigenvalues of (default mixing * dielectric matrix)
  average eigenvalue GAMMA=   1.2642
  1.2642

 Free energy of the ion-electron system (eV)
  ---------------------------------------------------
  alpha Z        PSCENC =       305.89839443
  Ewald energy   TEWEN  =     98604.44224264
  -Hartree energ DENC   =   -110487.94251914
  -exchange      EXHF   =         0.00000000
  -V(xc)+E(xc)   XCENC  =        44.67174570
  PAW double counting   =     12330.49671380   -11894.79239606
  entropy T*S    EENTRO =        -0.01064146
  eigenvalues    EBANDS =      -707.25828046
  atomic energy  EATOM  =     11706.16234457
  Solvation  Ediel_sol  =         0.00000000
  ---------------------------------------------------
  free energy    TOTEN  =       -98.33239599 eV

  energy without entropy =      -98.32175453  energy(sigma->0) =      -98.32884883


--------------------------------------------------------------------------------------------------------




--------------------------------------- Iteration      1(   7)  ---------------------------------------


    POTLOK:  cpu time    0.0166: real time    0.0180
    SETDIJ:  cpu time    0.0021: real time    0.0021
     EDDAV:  cpu time   13.3310: real time   13.3327
       DOS:  cpu time    0.0018: real time    0.0018
    CHARGE:  cpu time    0.3170: real time    0.3171
    MIXING:  cpu time    0.0006: real time    0.0006
    --------------------------------------------
      LOOP:  cpu time   13.6691: real time   13.6722

 eigenvalue-minimisations  : 15144
 total energy-change (2. order) :-0.3514021E+02  (-0.3337064E+02)
 number of electron     161.0000069 magnetization 
 augmentation part       48.6807885 magnetization 

 Broyden mixing:
  rms(total) = 0.52277E+01    rms(broyden)= 0.52276E+01
  rms(prec ) = 0.60099E+01
  weight for this iteration     100.00

 eigenvalues of (default mixing * dielectric matrix)
  average eigenvalue GAMMA=   1.0503
  1.8858  0.2148

 Free energy of the ion-electron system (eV)
  ---------------------------------------------------
  alpha Z        PSCENC =       305.89839443
  Ewald energy   TEWEN  =     98604.44224264
  -Hartree energ DENC   =   -110667.43619201
  -exchange      EXHF   =         0.00000000
  -V(xc)+E(xc)   XCENC  =        43.76942862
  PAW double counting   =     13201.98232321   -12775.96810741
  entropy T*S    EENTRO =         0.01407595
  eigenvalues    EBANDS =      -552.33711983
  atomic energy  EATOM  =     11706.16234457
  Solvation  Ediel_sol  =         0.00000000
  ---------------------------------------------------
  free energy    TOTEN  =      -133.47260983 eV

  energy without entropy =     -133.48668578  energy(sigma->0) =     -133.47730181


--------------------------------------------------------------------------------------------------------




--------------------------------------- Iteration      1(   8)  ---------------------------------------


    POTLOK:  cpu time    0.0176: real time    0.0177
    SETDIJ:  cpu time    0.0023: real time    0.0023
     EDDAV:  cpu time   13.9553: real time   13.9573
       DOS:  cpu time    0.0018: real time    0.0018
    CHARGE:  cpu time    0.3165: real time    0.3166
    MIXING:  cpu time    0.0006: real time    0.0006
    --------------------------------------------
      LOOP:  cpu time   14.2941: real time   14.2963

 eigenvalue-minimisations  : 15912
 total energy-change (2. order) : 0.2307539E+02  (-0.1254657E+02)
 number of electron     161.0000051 magnetization 
 augmentation part       49.8880653 magnetization 

 Broyden mixing:
  rms(total) = 0.33015E+01    rms(broyden)= 0.33014E+01
  rms(prec ) = 0.37916E+01
  weight for this iteration     100.00

 eigenvalues of (default mixing * dielectric matrix)
  average eigenvalue GAMMA=   0.8913
  2.1288  0.2725  0.2725

 Free energy of the ion-electron system (eV)
  ---------------------------------------------------
  alpha Z        PSCENC =       305.89839443
  Ewald energy   TEWEN  =     98604.44224264
  -Hartree energ DENC   =   -110559.93463890
  -exchange      EXHF   =         0.00000000
  -V(xc)+E(xc)   XCENC  =        42.90337811
  PAW double counting   =     13917.31904652   -13500.58796809
  entropy T*S    EENTRO =        -0.01773226
  eigenvalues    EBANDS =      -626.58228508
  atomic energy  EATOM  =     11706.16234457
  Solvation  Ediel_sol  =         0.00000000
  ---------------------------------------------------
  free energy    TOTEN  =      -110.39721806 eV

  energy without entropy =     -110.37948580  energy(sigma->0) =     -110.39130731


--------------------------------------------------------------------------------------------------------




--------------------------------------- Iteration      1(   9)  ---------------------------------------


    POTLOK:  cpu time    0.0169: real time    0.0209
    SETDIJ:  cpu time    0.0021: real time    0.0021
     EDDAV:  cpu time   11.9075: real time   11.9091
       DOS:  cpu time    0.0017: real time    0.0017
    CHARGE:  cpu time    0.3166: real time    0.3166
    MIXING:  cpu time    0.0006: real time    0.0006
    --------------------------------------------
      LOOP:  cpu time   12.2456: real time   12.2511

 eigenvalue-minimisations  : 13320
 total energy-change (2. order) : 0.4986159E+01  (-0.1395325E+02)
 number of electron     161.0000063 magnetization 
 augmentation part       50.3310651 magnetization 

 Broyden mixing:
  rms(total) = 0.26210E+01    rms(broyden)= 0.26208E+01
  rms(prec ) = 0.34959E+01
  weight for this iteration     100.00

 eigenvalues of (default mixing * dielectric matrix)
  average eigenvalue GAMMA=   0.8404
  2.2258  0.6797  0.2901  0.1659

 Free energy of the ion-electron system (eV)
  ---------------------------------------------------
  alpha Z        PSCENC =       305.89839443
  Ewald energy   TEWEN  =     98604.44224264
  -Hartree energ DENC   =   -110493.80949515
  -exchange      EXHF   =         0.00000000
  -V(xc)+E(xc)   XCENC  =        42.80848659
  PAW double counting   =     14202.43837916   -13788.59769416
  entropy T*S    EENTRO =         0.01985366
  eigenvalues    EBANDS =      -684.77357067
  atomic energy  EATOM  =     11706.16234457
  Solvation  Ediel_sol  =         0.00000000
  ---------------------------------------------------
  free energy    TOTEN  =      -105.41105894 eV

  energy without entropy =     -105.43091260  energy(sigma->0) =     -105.41767682


--------------------------------------------------------------------------------------------------------




--------------------------------------- Iteration      1(  10)  ---------------------------------------


    POTLOK:  cpu time    0.0169: real time    0.0169
    SETDIJ:  cpu time    0.0021: real time    0.0021
     EDDAV:  cpu time   13.9470: real time   13.9488
       DOS:  cpu time    0.0017: real time    0.0017
    CHARGE:  cpu time    0.3184: real time    0.3184
    MIXING:  cpu time    0.0007: real time    0.0007
    --------------------------------------------
      LOOP:  cpu time   14.2867: real time   14.2886

 eigenvalue-minimisations  : 15744
 total energy-change (2. order) :-0.1713235E+01  (-0.9957384E+01)
 number of electron     161.0000064 magnetization 
 augmentation part       50.1027162 magnetization 

 Broyden mixing:
  rms(total) = 0.27316E+01    rms(broyden)= 0.27315E+01
  rms(prec ) = 0.34742E+01
  weight for this iteration     100.00

 eigenvalues of (default mixing * dielectric matrix)
  average eigenvalue GAMMA=   0.7491
  2.3484  0.7749  0.2433  0.2433  0.1357

 Free energy of the ion-electron system (eV)
  ---------------------------------------------------
  alpha Z        PSCENC =       305.89839443
  Ewald energy   TEWEN  =     98604.44224264
  -Hartree energ DENC   =   -110490.59369718
  -exchange      EXHF   =         0.00000000
  -V(xc)+E(xc)   XCENC  =        42.90325919
  PAW double counting   =     14391.54674150   -13978.08693466
  entropy T*S    EENTRO =        -0.03433515
  eigenvalues    EBANDS =      -689.36230926
  atomic energy  EATOM  =     11706.16234457
  Solvation  Ediel_sol  =         0.00000000
  ---------------------------------------------------
  free energy    TOTEN  =      -107.12429393 eV

  energy without entropy =     -107.08995878  energy(sigma->0) =     -107.11284888


--------------------------------------------------------------------------------------------------------




--------------------------------------- Iteration      1(  11)  ---------------------------------------


    POTLOK:  cpu time    0.0175: real time    0.0211
    SETDIJ:  cpu time    0.0023: real time    0.0023
     EDDAV:  cpu time   12.7439: real time   12.7456
       DOS:  cpu time    0.0018: real time    0.0018
    CHARGE:  cpu time    0.3166: real time    0.3167
    MIXING:  cpu time    0.0008: real time    0.0008
    --------------------------------------------
      LOOP:  cpu time   13.0830: real time   13.0883

 eigenvalue-minimisations  : 14400
 total energy-change (2. order) : 0.1030267E+02  (-0.3887797E+01)
 number of electron     161.0000060 magnetization 
 augmentation part       50.2732306 magnetization 

 Broyden mixing:
  rms(total) = 0.10256E+01    rms(broyden)= 0.10255E+01
  rms(prec ) = 0.11217E+01
  weight for this iteration     100.00

 eigenvalues of (default mixing * dielectric matrix)
  average eigenvalue GAMMA=   0.6809
  2.1124  0.6312  0.6312  0.2858  0.2858  0.1388

 Free energy of the ion-electron system (eV)
  ---------------------------------------------------
  alpha Z        PSCENC =       305.89839443
  Ewald energy   TEWEN  =     98604.44224264
  -Hartree energ DENC   =   -110493.35491685
  -exchange      EXHF   =         0.00000000
  -V(xc)+E(xc)   XCENC  =        42.98788258
  PAW double counting   =     14534.85084043   -14122.33932187
  entropy T*S    EENTRO =        -0.05201954
  eigenvalues    EBANDS =      -675.41706912
  atomic energy  EATOM  =     11706.16234457
  Solvation  Ediel_sol  =         0.00000000
  ---------------------------------------------------
  free energy    TOTEN  =       -96.82162273 eV

  energy without entropy =      -96.76960319  energy(sigma->0) =      -96.80428288


--------------------------------------------------------------------------------------------------------




--------------------------------------- Iteration      1(  12)  ---------------------------------------


    POTLOK:  cpu time    0.0181: real time    0.0189
    SETDIJ:  cpu time    0.0021: real time    0.0021
     EDDAV:  cpu time   13.2004: real time   13.2020
       DOS:  cpu time    0.0018: real time    0.0018
    CHARGE:  cpu time    0.3171: real time    0.3171
    MIXING:  cpu time    0.0008: real time    0.0008
    --------------------------------------------
      LOOP:  cpu time   13.5404: real time   13.5428

 eigenvalue-minimisations  : 15000
 total energy-change (2. order) :-0.5099127E+00  (-0.1291822E+01)
 number of electron     161.0000056 magnetization 
 augmentation part       50.2778936 magnetization 

 Broyden mixing:
  rms(total) = 0.13031E+01    rms(broyden)= 0.13030E+01
  rms(prec ) = 0.14937E+01
  weight for this iteration     100.00

 eigenvalues of (default mixing * dielectric matrix)
  average eigenvalue GAMMA=   0.6353
  2.0531  0.7132  0.7132  0.3301  0.2506  0.2506  0.1362

 Free energy of the ion-electron system (eV)
  ---------------------------------------------------
  alpha Z        PSCENC =       305.89839443
  Ewald energy   TEWEN  =     98604.44224264
  -Hartree energ DENC   =   -110488.73224695
  -exchange      EXHF   =         0.00000000
  -V(xc)+E(xc)   XCENC  =        43.05332018
  PAW double counting   =     14425.20651985   -14011.57015366
  entropy T*S    EENTRO =        -0.02532335
  eigenvalues    EBANDS =      -681.76663313
  atomic energy  EATOM  =     11706.16234457
  Solvation  Ediel_sol  =         0.00000000
  ---------------------------------------------------
  free energy    TOTEN  =       -97.33153541 eV

  energy without entropy =      -97.30621207  energy(sigma->0) =      -97.32309430


--------------------------------------------------------------------------------------------------------




--------------------------------------- Iteration      1(  13)  ---------------------------------------


    POTLOK:  cpu time    0.0170: real time    0.0170
    SETDIJ:  cpu time    0.0021: real time    0.0021
     EDDAV:  cpu time   12.1943: real time   12.1958
       DOS:  cpu time    0.0018: real time    0.0018
    CHARGE:  cpu time    0.3165: real time    0.3166
    MIXING:  cpu time    0.0008: real time    0.0008
    --------------------------------------------
      LOOP:  cpu time   12.5326: real time   12.5342

 eigenvalue-minimisations  : 13848
 total energy-change (2. order) : 0.1352578E+01  (-0.1170663E+01)
 number of electron     161.0000051 magnetization 
 augmentation part       50.1417753 magnetization 

 Broyden mixing:
  rms(total) = 0.51520E+00    rms(broyden)= 0.51511E+00
  rms(prec ) = 0.54282E+00
  weight for this iteration     100.00

 eigenvalues of (default mixing * dielectric matrix)
  average eigenvalue GAMMA=   0.6540
  2.1142  0.9502  0.6237  0.6237  0.2857  0.2857  0.2123  0.1367

 Free energy of the ion-electron system (eV)
  ---------------------------------------------------
  alpha Z        PSCENC =       305.89839443
  Ewald energy   TEWEN  =     98604.44224264
  -Hartree energ DENC   =   -110501.14171612
  -exchange      EXHF   =         0.00000000
  -V(xc)+E(xc)   XCENC  =        43.21209040
  PAW double counting   =     14397.60621455   -13983.47368406
  entropy T*S    EENTRO =        -0.03759315
  eigenvalues    EBANDS =      -668.64725105
  atomic energy  EATOM  =     11706.16234457
  Solvation  Ediel_sol  =         0.00000000
  ---------------------------------------------------
  free energy    TOTEN  =       -95.97895779 eV

  energy without entropy =      -95.94136464  energy(sigma->0) =      -95.96642674


--------------------------------------------------------------------------------------------------------




--------------------------------------- Iteration      1(  14)  ---------------------------------------


    POTLOK:  cpu time    0.0178: real time    0.0214
    SETDIJ:  cpu time    0.0023: real time    0.0023
     EDDAV:  cpu time   10.7973: real time   10.7986
       DOS:  cpu time    0.0017: real time    0.0017
    CHARGE:  cpu time    0.3167: real time    0.3167
    MIXING:  cpu time    0.0009: real time    0.0009
    --------------------------------------------
      LOOP:  cpu time   11.1367: real time   11.1416

 eigenvalue-minimisations  : 12000
 total energy-change (2. order) : 0.9460244E-01  (-0.1585012E+00)
 number of electron     161.0000055 magnetization 
 augmentation part       50.0833451 magnetization 

 Broyden mixing:
  rms(total) = 0.42690E+00    rms(broyden)= 0.42686E+00
  rms(prec ) = 0.45066E+00
  weight for this iteration     100.00

 eigenvalues of (default mixing * dielectric matrix)
  average eigenvalue GAMMA=   0.5995
  2.0795  0.8890  0.6715  0.6715  0.2875  0.2875  0.2076  0.1354  0.1660

 Free energy of the ion-electron system (eV)
  ---------------------------------------------------
  alpha Z        PSCENC =       305.89839443
  Ewald energy   TEWEN  =     98604.44224264
  -Hartree energ DENC   =   -110512.55337339
  -exchange      EXHF   =         0.00000000
  -V(xc)+E(xc)   XCENC  =        43.16884992
  PAW double counting   =     14399.92904865   -13986.11968935
  entropy T*S    EENTRO =        -0.03186526
  eigenvalues    EBANDS =      -656.78030756
  atomic energy  EATOM  =     11706.16234457
  Solvation  Ediel_sol  =         0.00000000
  ---------------------------------------------------
  free energy    TOTEN  =       -95.88435535 eV

  energy without entropy =      -95.85249009  energy(sigma->0) =      -95.87373360


--------------------------------------------------------------------------------------------------------




--------------------------------------- Iteration      1(  15)  ---------------------------------------


    POTLOK:  cpu time    0.0171: real time    0.0171
    SETDIJ:  cpu time    0.0021: real time    0.0021
     EDDAV:  cpu time   11.1086: real time   11.1102
       DOS:  cpu time    0.0017: real time    0.0016
    CHARGE:  cpu time    0.3163: real time    0.3164
    MIXING:  cpu time    0.0009: real time    0.0009
    --------------------------------------------
      LOOP:  cpu time   11.4467: real time   11.4483

 eigenvalue-minimisations  : 12480
 total energy-change (2. order) :-0.1271490E-02  (-0.5011303E-02)
 number of electron     161.0000055 magnetization 
 augmentation part       50.0745658 magnetization 

 Broyden mixing:
  rms(total) = 0.40591E+00    rms(broyden)= 0.40591E+00
  rms(prec ) = 0.43701E+00
  weight for this iteration     100.00

 eigenvalues of (default mixing * dielectric matrix)
  average eigenvalue GAMMA=   0.6527
  2.0164  1.0332  1.0332  0.6839  0.4212  0.4212  0.2832  0.2832  0.1366  0.2144

 Free energy of the ion-electron system (eV)
  ---------------------------------------------------
  alpha Z        PSCENC =       305.89839443
  Ewald energy   TEWEN  =     98604.44224264
  -Hartree energ DENC   =   -110513.24485845
  -exchange      EXHF   =         0.00000000
  -V(xc)+E(xc)   XCENC  =        43.17636241
  PAW double counting   =     14378.12762078   -13964.21830003
  entropy T*S    EENTRO =        -0.03211132
  eigenvalues    EBANDS =      -656.19732187
  atomic energy  EATOM  =     11706.16234457
  Solvation  Ediel_sol  =         0.00000000
  ---------------------------------------------------
  free energy    TOTEN  =       -95.88562684 eV

  energy without entropy =      -95.85351552  energy(sigma->0) =      -95.87492307


--------------------------------------------------------------------------------------------------------




--------------------------------------- Iteration      1(  16)  ---------------------------------------


    POTLOK:  cpu time    0.0174: real time    0.0210
    SETDIJ:  cpu time    0.0021: real time    0.0021
     EDDAV:  cpu time   12.9534: real time   12.9556
       DOS:  cpu time    0.0018: real time    0.0018
    CHARGE:  cpu time    0.3171: real time    0.3171
    MIXING:  cpu time    0.0011: real time    0.0011
    --------------------------------------------
      LOOP:  cpu time   13.2929: real time   13.2987

 eigenvalue-minimisations  : 14760
 total energy-change (2. order) : 0.2514501E-01  (-0.5911569E-02)
 number of electron     161.0000054 magnetization 
 augmentation part       50.0801710 magnetization 

 Broyden mixing:
  rms(total) = 0.30757E+00    rms(broyden)= 0.30757E+00
  rms(prec ) = 0.34021E+00
  weight for this iteration     100.00

 eigenvalues of (default mixing * dielectric matrix)
  average eigenvalue GAMMA=   0.7592
[...]
     86      -0.3456     -0.02286
     87       0.6833     -0.00000
     88       1.2325     -0.00000
     89       1.3657     -0.00000
     90       1.5202     -0.00000
     91       1.8413     -0.00000
     92       1.8612     -0.00000
     93       2.4761     -0.00000
     94       2.8893     -0.00000
     95       3.1122     -0.00000
     96       3.8965     -0.00000

 k-point    51 :      -0.4375    0.4375    0.0000
  band No.  band energies     occupation 
      1      -8.2068      2.00000
      2      -8.1749      2.00000
      3      -7.2488      2.00000
      4      -7.2196      2.00000
      5      -6.7252      2.00000
      6      -6.5128      2.00000
      7      -6.4736      2.00000
      8      -6.3556      2.00000
      9      -6.2627      2.00000
     10      -6.1824      2.00000
     11      -6.1320      2.00000
     12      -6.0735      2.00000
     13      -6.0413      2.00000
     14      -5.8865      2.00000
     15      -5.8384      2.00000
     16      -5.6797      2.00000
     17      -5.6217      2.00000
     18      -5.5944      2.00000
     19      -5.4911      2.00000
     20      -5.4194      2.00000
     21      -5.3257      2.00000
     22      -5.2012      2.00000
     23      -5.1904      2.00000
     24      -5.1654      2.00000
     25      -5.0805      2.00000
     26      -5.0359      2.00000
     27      -4.9794      2.00000
     28      -4.9651      2.00000
     29      -4.7946      2.00000
     30      -4.6637      2.00000
     31      -4.6068      2.00000
     32      -4.5684      2.00000
     33      -4.4970      2.00000
     34      -4.4317      2.00000
     35      -4.3483      2.00000
     36      -4.2878      2.00000
     37      -4.2372      2.00000
     38      -4.1616      2.00000
     39      -4.0841      2.00000
     40      -4.0318      2.00000
     41      -3.9804      2.00000
     42      -3.9426      2.00000
     43      -3.8220      2.00000
     44      -3.7694      2.00000
     45      -3.6263      2.00000
     46      -3.6146      2.00000
     47      -3.5848      2.00000
     48      -3.5606      2.00000
     49      -3.4949      2.00000
     50      -3.4868      2.00000
     51      -3.3353      2.00000
     52      -3.3005      2.00000
     53      -3.2322      2.00000
     54      -3.0852      2.00000
     55      -2.9123      2.00000
     56      -2.8436      2.00000
     57      -2.8006      2.00000
     58      -2.7400      2.00000
     59      -2.6654      2.00000
     60      -2.5430      2.00000
     61      -2.5170      2.00000
     62      -2.4316      2.00000
     63      -2.3804      2.00000
     64      -2.3341      2.00000
     65      -2.2546      2.00000
     66      -2.1982      2.00000
     67      -2.1055      2.00000
     68      -2.0351      2.00000
     69      -1.9185      2.00000
     70      -1.8776      2.00000
     71      -1.8060      2.00000
     72      -1.7750      2.00000
     73      -1.6625      2.00000
     74      -1.5212      2.00000
     75      -1.4312      2.00001
     76      -1.3210      2.00019
     77      -1.2878      2.00047
     78      -1.1990      2.00384
     79      -0.8980      2.01499
     80      -0.8619      1.91840
     81      -0.8269      1.76496
     82      -0.7184      0.96652
     83      -0.6348      0.33234
     84      -0.5712      0.04437
     85      -0.4710     -0.07062
     86      -0.3511     -0.02473
     87       0.2702     -0.00000
     88       0.5225     -0.00000
     89       0.8582     -0.00000
     90       1.5273     -0.00000
     91       1.6210     -0.00000
     92       2.4229     -0.00000
     93       2.7727     -0.00000
     94       3.2113     -0.00000
     95       3.5906     -0.00000
     96       4.0429     -0.00000

 k-point    52 :      -0.4375    0.1250    0.0000
  band No.  band energies     occupation 
      1      -8.2218      2.00000
      2      -8.1605      2.00000
      3      -7.2951      2.00000
      4      -7.1658      2.00000
      5      -6.7243      2.00000
      6      -6.5293      2.00000
      7      -6.4389      2.00000
      8      -6.3605      2.00000
      9      -6.2664      2.00000
     10      -6.1993      2.00000
     11      -6.1320      2.00000
     12      -6.1098      2.00000
     13      -6.0226      2.00000
     14      -5.8861      2.00000
     15      -5.8484      2.00000
     16      -5.6798      2.00000
     17      -5.5954      2.00000
     18      -5.5622      2.00000
     19      -5.4796      2.00000
     20      -5.4204      2.00000
     21      -5.3035      2.00000
     22      -5.2487      2.00000
     23      -5.1873      2.00000
     24      -5.1841      2.00000
     25      -5.0918      2.00000
     26      -5.0424      2.00000
     27      -4.9762      2.00000
     28      -4.9193      2.00000
     29      -4.7985      2.00000
     30      -4.6967      2.00000
     31      -4.6174      2.00000
     32      -4.5651      2.00000
     33      -4.4503      2.00000
     34      -4.4253      2.00000
     35      -4.3797      2.00000
     36      -4.3166      2.00000
     37      -4.1881      2.00000
     38      -4.0999      2.00000
     39      -4.0786      2.00000
     40      -4.0422      2.00000
     41      -3.9960      2.00000
     42      -3.9446      2.00000
     43      -3.8729      2.00000
     44      -3.7429      2.00000
     45      -3.6560      2.00000
     46      -3.6030      2.00000
     47      -3.5797      2.00000
     48      -3.5734      2.00000
     49      -3.5024      2.00000
     50      -3.4792      2.00000
     51      -3.3566      2.00000
     52      -3.2842      2.00000
     53      -3.2136      2.00000
     54      -3.0667      2.00000
     55      -2.8759      2.00000
     56      -2.8328      2.00000
     57      -2.8166      2.00000
     58      -2.8026      2.00000
     59      -2.6618      2.00000
     60      -2.6091      2.00000
     61      -2.5470      2.00000
     62      -2.4949      2.00000
     63      -2.4460      2.00000
     64      -2.3144      2.00000
     65      -2.2074      2.00000
     66      -2.1081      2.00000
     67      -2.0786      2.00000
     68      -2.0374      2.00000
     69      -1.9543      2.00000
     70      -1.8783      2.00000
     71      -1.8526      2.00000
     72      -1.8393      2.00000
     73      -1.6634      2.00000
     74      -1.5467      2.00000
     75      -1.3929      2.00002
     76      -1.3563      2.00007
     77      -1.1753      2.00620
     78      -1.0881      2.02669
     79      -0.9222      2.05017
     80      -0.8536      1.88748
     81      -0.8044      1.63383
     82      -0.7535      1.26038
     83      -0.6047      0.17086
     84      -0.5545      0.00112
     85      -0.5050     -0.06388
     86      -0.3319     -0.01860
     87       0.2713     -0.00000
     88       0.4941     -0.00000
     89       0.8920     -0.00000
     90       1.5209     -0.00000
     91       1.5894     -0.00000
     92       2.4227     -0.00000
     93       2.7426     -0.00000
     94       3.2507     -0.00000
     95       3.5810     -0.00000
     96       4.0362     -0.00000


--------------------------------------------------------------------------------------------------------


 soft charge-density along one line, spin component           1
         0         1         2         3         4         5         6         7         8         9
 total charge-density along one line
 
 pseudopotential strength for first ion, spin component:           1
 -8.271   0.002   0.000  -0.014   0.000  -8.482   0.002   0.000
  0.002  -8.194  -0.001   0.000  -0.011   0.002  -8.406  -0.001
  0.000  -0.001  -8.199   0.001  -0.000   0.000  -0.001  -8.410
 -0.014   0.000   0.001  -8.195   0.002  -0.014   0.000   0.001
  0.000  -0.011  -0.000   0.002  -8.271   0.000  -0.011  -0.000
 -8.482   0.002   0.000  -0.014   0.000  -8.678   0.002   0.000
  0.002  -8.406  -0.001   0.000  -0.011   0.002  -8.603  -0.001
  0.000  -0.001  -8.410   0.001  -0.000   0.000  -0.001  -8.608
 -0.014   0.000   0.001  -8.406   0.002  -0.013   0.000   0.001
  0.000  -0.011  -0.000   0.002  -8.482   0.000  -0.011  -0.000
 -0.000   0.001  -0.021  -0.001   0.000  -0.000   0.001  -0.020
 -0.000   0.001  -0.031  -0.002   0.000  -0.000   0.001  -0.031
 -0.000  -0.007  -0.000  -0.000   0.000  -0.000  -0.007  -0.000
 -0.000   0.000  -0.014  -0.000   0.000  -0.000   0.000  -0.014
  0.000  -0.000   0.000  -0.007  -0.000   0.000  -0.000   0.000
 -0.000  -0.007  -0.000  -0.000   0.000  -0.000  -0.007  -0.000
 -0.000   0.000  -0.016  -0.000   0.000  -0.000   0.000  -0.016
  0.000  -0.000   0.000  -0.007  -0.000   0.000  -0.000   0.000
 total augmentation occupancy for first ion, spin component:           1
  2.588   0.016   0.012  -0.326   0.006  -1.825  -0.010  -0.008   0.112  -0.005   0.004   0.001   0.000  -0.001  -0.038  -0.000
  0.016   3.411  -0.007   0.009  -0.308  -0.010  -1.864   0.004  -0.005   0.107  -0.005   0.000  -0.226   0.000   0.002   0.007
  0.012  -0.007   3.489   0.011  -0.007  -0.008   0.004  -2.245  -0.008   0.004   0.674  -0.064  -0.002  -0.220   0.003  -0.000
 -0.326   0.009   0.011   3.400   0.016   0.118  -0.005  -0.008  -1.858  -0.010   0.008  -0.001   0.002  -0.000  -0.228  -0.000
  0.006  -0.308  -0.007   0.016   2.594  -0.005   0.100   0.004  -0.010  -1.830  -0.002  -0.000  -0.038   0.000   0.000   0.003
 -1.825  -0.010  -0.008   0.118  -0.005   2.491   0.007   0.005   0.027   0.003  -0.003  -0.000  -0.000   0.000   0.041  -0.000
 -0.010  -1.864   0.004  -0.005   0.100   0.007   1.927  -0.003   0.003   0.035   0.003   0.000   0.219  -0.000  -0.001  -0.015
 -0.008   0.004  -2.245  -0.008   0.004   0.005  -0.003   2.536   0.006  -0.003  -0.714   0.091   0.001   0.312  -0.002  -0.000
  0.112  -0.005  -0.008  -1.858  -0.010   0.027   0.003   0.006   1.923   0.007  -0.005  -0.001  -0.001   0.000   0.220  -0.000
 -0.005   0.107   0.004  -0.010  -1.830   0.003   0.035  -0.003   0.007   2.495   0.001   0.000   0.041  -0.000  -0.000  -0.003
  0.004  -0.005   0.674   0.008  -0.002  -0.003   0.003  -0.714  -0.005   0.001   2.076  -0.337  -0.000   0.167   0.001   0.000
  0.001   0.000  -0.064  -0.001  -0.000  -0.000   0.000   0.091  -0.001   0.000  -0.337   0.072  -0.000  -0.048   0.000  -0.000
  0.000  -0.226  -0.002   0.002  -0.038  -0.000   0.219   0.001  -0.001   0.041  -0.000  -0.000   0.263   0.000   0.000  -0.014
 -0.001   0.000  -0.220  -0.000   0.000   0.000  -0.000   0.312   0.000  -0.000   0.167  -0.048   0.000   0.142  -0.001  -0.000
 -0.038   0.002   0.003  -0.228   0.000   0.041  -0.001  -0.002   0.220  -0.000   0.001   0.000   0.000  -0.001   0.262  -0.000
 -0.000   0.007  -0.000  -0.000   0.003  -0.000  -0.015  -0.000  -0.000  -0.003   0.000  -0.000  -0.014  -0.000  -0.000   0.001
 -0.000   0.000  -0.004  -0.000   0.000  -0.000   0.000  -0.018  -0.000   0.000  -0.018   0.004  -0.000  -0.009   0.000   0.000
  0.003  -0.000   0.000   0.007  -0.000  -0.003  -0.000   0.000  -0.015  -0.000  -0.000   0.000  -0.000   0.000  -0.014   0.000


------------------------ aborting loop because EDIFF is reached ----------------------------------------



 DIPCOR: dipole corrections for dipol
 direction  3 min pos   281,
 dipolmoment           0.000000      0.000000     -0.056922 electrons x Angstroem
 Tr[quadrupol]      -957.653440

 energy correction for charged system         0.000000 eV
 dipol+quadrupol energy correction            0.000356 eV
 added-field ion interaction          0.000000 eV  (added to PSCEN)

 
  *************** adding dipol energy to TOTEN NOW **************** 
    CHARGE:  cpu time    0.3176: real time    0.3177
    FORLOC:  cpu time    0.0028: real time    0.0028
    FORNL :  cpu time    4.6332: real time    4.6336
    STRESS:  cpu time    8.3092: real time    8.3100
    FORCOR:  cpu time    0.0180: real time    0.0181
    FORHAR:  cpu time    0.0062: real time    0.0062
    MIXING:  cpu time    0.0025: real time    0.0025
    OFIELD:  cpu time    0.0000: real time    0.0000

  FORCE on cell =-STRESS in cart. coord.  units (eV):
  Direction    XX          YY          ZZ          XY          YZ          ZX
  --------------------------------------------------------------------------------------
  Alpha Z   305.89839   305.89839   305.89839
  Ewald  107476.19062107477.79729************     1.39142     0.05769    -0.09992
  Hartree109822.09206109823.54992************     1.26254    -0.03480     0.06027
  E(xc)    -712.77574  -712.77678  -717.18629    -0.00082     0.01446    -0.02506
  Local  ************************222613.33207    -2.78632     0.29687    -0.51428
  n-local    61.40240    54.95705    45.38965     2.50184    -0.55493    -0.07014
  augment   835.63129   835.47822   859.01994    -0.13413    -0.09421     0.16228
  Kinetic  2296.30676  2292.00487  2352.64722     1.03054    -0.83489     0.15674
  Fock        0.00000     0.00000     0.00000     0.00000     0.00000     0.00000
  -------------------------------------------------------------------------------------
  Total     -11.37118   -11.30783    -1.24026     0.05487    -0.14544     0.25191
  in kB     -22.10658   -21.98341    -2.41118     0.10666    -0.28275     0.48974
  external pressure =      -15.50 kB  Pullay stress =        0.00 kB


 VOLUME and BASIS-vectors are now :
 -----------------------------------------------------------------------------
  energy-cutoff  :      350.00
  volume of cell :      824.13
      direct lattice vectors                 reciprocal lattice vectors
     5.557859300  0.000000000  0.000000000     0.179925390 -0.103879972  0.000000000
     2.778929650  4.813247345  0.000000000     0.000000000  0.207759944  0.000000000
     0.000000000  0.000000000 30.806959674     0.000000000  0.000000000  0.032460198

  length of vectors
     5.557859300  5.557859300 30.806959674     0.207759944  0.207759944  0.032460198


 FORCES acting on ions
    electron-ion (+dipol)            ewald-force                    non-local-force                 convergence-correction
 -----------------------------------------------------------------------------------------------
   0.184E-01 -.106E-01 0.257E+04   0.185E-04 -.107E-04 -.257E+04   0.180E-01 -.104E-01 -.133E+00   0.161E-03 -.929E-04 -.254E-01
   -.217E-01 -.261E+01 0.286E+04   -.207E-04 0.264E+01 -.286E+04   -.104E-01 0.963E-01 -.741E+00   -.215E-03 -.362E-03 -.271E-01
   -.225E+01 0.130E+01 0.286E+04   0.229E+01 -.132E+01 -.286E+04   0.749E-01 -.432E-01 -.723E+00   -.198E-03 0.114E-03 -.267E-01
   0.225E+01 0.133E+01 0.286E+04   -.229E+01 -.132E+01 -.286E+04   -.886E-01 -.391E-01 -.741E+00   0.206E-03 0.367E-03 -.271E-01
   0.371E+01 0.245E+01 0.102E+04   -.391E+01 -.254E+01 -.101E+04   0.906E-01 0.397E-01 -.487E+00   -.206E-02 -.774E-03 -.491E-01
   -.373E+01 0.215E+01 0.101E+04   0.391E+01 -.226E+01 -.101E+04   -.650E-01 0.375E-01 -.321E+00   0.208E-02 -.120E-02 -.486E-01
   -.264E+00 -.444E+01 0.102E+04   0.248E+00 0.466E+01 -.101E+04   0.109E-01 -.983E-01 -.487E+00   -.360E-03 0.217E-02 -.491E-01
   0.248E+00 -.143E+00 0.103E+04   -.237E+00 0.137E+00 -.103E+04   -.572E-02 0.330E-02 0.824E-01   0.354E-03 -.204E-03 -.470E-01
   0.478E+01 0.342E+01 -.871E+03   -.491E+01 -.386E+01 0.871E+03   -.406E-01 0.388E+00 0.155E+00   0.893E-03 -.968E-04 -.261E-01
   -.480E+01 0.277E+01 -.867E+03   0.490E+01 -.283E+01 0.866E+03   0.100E-01 -.580E-02 0.413E+00   -.921E-03 0.532E-03 -.267E-01
   -.573E+00 -.585E+01 -.871E+03   0.885E+00 0.619E+01 0.871E+03   -.356E+00 -.159E+00 0.155E+00   0.530E-03 -.725E-03 -.261E-01
   0.525E+00 -.303E+00 -.876E+03   -.851E+00 0.491E+00 0.876E+03   0.333E+00 -.192E+00 0.935E-01   -.489E-03 0.283E-03 -.270E-01
   -.238E-01 0.138E-01 -.278E+04   0.244E-01 -.141E-01 0.279E+04   0.472E-01 -.273E-01 -.653E+01   -.144E-03 0.833E-04 -.264E-02
   0.164E+00 -.352E+01 -.277E+04   -.112E+00 0.343E+01 0.276E+04   -.621E-01 0.119E+00 0.124E+01   0.197E-03 -.117E-03 -.375E-02
   0.313E+01 0.162E+01 -.277E+04   -.302E+01 -.162E+01 0.276E+04   -.134E+00 -.557E-02 0.124E+01   0.200E-03 -.112E-03 -.375E-02
   -.315E+01 0.182E+01 -.304E+04   0.308E+01 -.178E+01 0.304E+04   0.158E+00 -.913E-01 0.655E+00   -.161E-03 0.929E-04 -.380E-02
   -.224E-02 0.129E-02 -.376E+03   0.112E-02 -.645E-03 0.380E+03   0.699E-03 -.403E-03 -.309E+01   0.535E-06 -.308E-06 0.148E-02
 -----------------------------------------------------------------------------------------------
   0.198E-01 -.114E-01 0.964E+01   0.494E-14 0.314E-13 0.171E-11   -.197E-01 0.114E-01 -.923E+01   0.697E-04 -.402E-04 -.419E+00
 
 
 POSITION                                       TOTAL-FORCE (eV/Angst)
 -----------------------------------------------------------------------------------
      0.00000      0.00000     12.00000         0.036606     -0.021135      1.188258
      2.77893      0.00000     12.00000        -0.032310      0.125616     -0.133207
      1.38946      2.40662     12.00000         0.113189     -0.065350     -0.138047
      4.16839      2.40662     12.00000        -0.124942     -0.034827     -0.133207
      1.38832      0.80154     14.33833        -0.108291     -0.056159     -0.255970
      4.16954      0.80154     14.33833         0.118478     -0.068403     -0.524526
      2.77893      3.21016     14.33833        -0.005511      0.121862     -0.255970
      5.55786      3.20883     14.30267         0.005518     -0.003186      0.110117
      5.55786      1.59830     16.63736        -0.174540     -0.050366     -0.142341
      2.77893      1.60442     16.63406         0.106687     -0.061596     -0.386366
      6.95262      4.01410     16.63736        -0.043652      0.176339     -0.142341
      4.16310      4.01410     16.63736         0.006391     -0.003690      0.165308
      0.00000      0.00000     19.07085         0.047598     -0.027481     -0.093924
      5.55786      4.80856     18.94595        -0.010641      0.020242     -0.193563
      4.17246      2.40897     18.94595        -0.022851     -0.000905     -0.193563
      6.94326      2.40897     18.94595         0.088700     -0.051211      1.077283
      0.00000      0.00000     20.62632        -0.000429      0.000248      0.052060
 -----------------------------------------------------------------------------------
    total drift:                                0.000118     -0.000069     -0.003171


--------------------------------------------------------------------------------------------------------



  FREE ENERGIE OF THE ION-ELECTRON SYSTEM (eV)
  ---------------------------------------------------
  free  energy   TOTEN  =       -95.81222899 eV

  energy  without entropy=      -95.77569043  energy(sigma->0) =      -95.80004947
 


--------------------------------------------------------------------------------------------------------


    POTLOK:  cpu time    0.0198: real time    0.0198


--------------------------------------------------------------------------------------------------------


     LOOP+:  cpu time  403.3832: real time  403.5064
    4ORBIT:  cpu time    0.0000: real time    0.0000

 total amount of memory used by VASP MPI-rank0   455244. kBytes
=======================================================================

   base      :      30000. kBytes
   nonl-proj :     372843. kBytes
   fftplans  :       2015. kBytes
   grid      :       8030. kBytes
   one-center:        264. kBytes
   wavefun   :      42092. kBytes
 
  
  
 General timing and accounting informations for this job:
 ========================================================
  
                  Total CPU time used (sec):      408.868
                            User time (sec):      407.426
                          System time (sec):        1.442
                         Elapsed time (sec):      409.142
  
                   Maximum memory used (kb):      496108.
                   Average memory used (kb):           0.
  
                          Minor page faults:        82205
                          Major page faults:            0
                 Voluntary context switches:         1026
