  16  16   0   0
  0.5150799E+02  0.5557859E-09  0.5557859E-09  0.3080696E-08  0.5000000E-15
  1.000000000000000E-004
  CAR 
 unknown system                          
      6.49628143    -12.18715653  301     -0.81073847      1.00000000
    -12.187  0.0000E+00  0.0000E+00
    -12.125  0.0000E+00  0.0000E+00
    -12.063  0.0000E+00  0.0000E+00
    -12.000  0.0000E+00  0.0000E+00
    -11.938  0.0000E+00  0.0000E+00
    -11.876  0.0000E+00  0.0000E+00
    -11.813 -0.4414E-28 -0.2749E-29
    -11.751 -0.6080E-26 -0.3814E-27
    -11.689 -0.6903E-24 -0.4338E-25
    -11.627 -0.6445E-22 -0.4057E-23
    -11.564 -0.4946E-20 -0.3121E-21
    -11.502 -0.3120E-18 -0.1974E-19
    -11.440 -0.1617E-16 -0.1027E-17
    -11.378 -0.6888E-15 -0.4392E-16
    -11.315 -0.2331E-13 -0.1496E-14
    -11.253 -0.6678E-12 -0.4308E-13
    -11.191 -0.1566E-10 -0.1019E-11
    -11.128 -0.3011E-09 -0.1977E-10
    -11.066 -0.4738E-08 -0.3149E-09
    -11.004 -0.6098E-07 -0.4112E-08
    -10.942 -0.6407E-06 -0.4401E-07
    -10.879 -0.5485E-05 -0.3856E-06
    -10.817 -0.3814E-04 -0.2761E-05
    -10.755 -0.2145E-03 -0.1612E-04
    -10.692 -0.9694E-03 -0.7649E-04
    -10.630 -0.3482E-02 -0.2933E-03
    -10.568 -0.9744E-02 -0.9002E-03
    -10.506 -0.2039E-01 -0.2170E-02
    -10.443 -0.2838E-01 -0.3937E-02
    -10.381 -0.1234E-01 -0.4706E-02
    -10.319  0.5802E-01 -0.1093E-02
    -10.257  0.1983E+00  0.1126E-01
    -10.194  0.3889E+00  0.3548E-01
    -10.132  0.5865E+00  0.7201E-01
    -10.070  0.7559E+00  0.1191E+00
    -10.007  0.8778E+00  0.1737E+00
     -9.945  0.9344E+00  0.2319E+00
     -9.883  0.9134E+00  0.2888E+00
     -9.821  0.8340E+00  0.3408E+00
     -9.758  0.7576E+00  0.3879E+00
     -9.696  0.7598E+00  0.4353E+00
     -9.634  0.8693E+00  0.4894E+00
     -9.571  0.1020E+01  0.5529E+00
     -9.509  0.1095E+01  0.6211E+00
     -9.447  0.1043E+01  0.6860E+00
     -9.385  0.9186E+00  0.7432E+00
     -9.322  0.8072E+00  0.7935E+00
     -9.260  0.7434E+00  0.8398E+00
     -9.198  0.7365E+00  0.8857E+00
     -9.136  0.8239E+00  0.9370E+00
     -9.073  0.1041E+01  0.1002E+01
     -9.011  0.1340E+01  0.1085E+01
     -8.949  0.1601E+01  0.1185E+01
     -8.886  0.1746E+01  0.1294E+01
     -8.824  0.1806E+01  0.1406E+01
     -8.762  0.1844E+01  0.1521E+01
     -8.700  0.1855E+01  0.1637E+01
     -8.637  0.1801E+01  0.1749E+01
     -8.575  0.1720E+01  0.1856E+01
     -8.513  0.1742E+01  0.1964E+01
     -8.450  0.1972E+01  0.2087E+01
     -8.388  0.2356E+01  0.2234E+01
     -8.326  0.2681E+01  0.2401E+01
     -8.264  0.2740E+01  0.2571E+01
     -8.201  0.2539E+01  0.2730E+01
     -8.139  0.2270E+01  0.2871E+01
     -8.077  0.2101E+01  0.3002E+01
     -8.015  0.2061E+01  0.3130E+01
     -7.952  0.2168E+01  0.3265E+01
     -7.890  0.2559E+01  0.3425E+01
     -7.828  0.3358E+01  0.3634E+01
     -7.765  0.4415E+01  0.3909E+01
     -7.703  0.5341E+01  0.4241E+01
     -7.641  0.5909E+01  0.4609E+01
     -7.579  0.6330E+01  0.5004E+01
     -7.516  0.7013E+01  0.5440E+01
     -7.454  0.8137E+01  0.5947E+01
     -7.392  0.9598E+01  0.6545E+01
     -7.329  0.1121E+02  0.7243E+01
     -7.267  0.1273E+02  0.8036E+01
     -7.205  0.1380E+02  0.8895E+01
     -7.143  0.1406E+02  0.9771E+01
     -7.080  0.1351E+02  0.1061E+02
     -7.018  0.1261E+02  0.1140E+02
     -6.956  0.1211E+02  0.1215E+02
     -6.894  0.1269E+02  0.1294E+02
     -6.831  0.1454E+02  0.1385E+02
     -6.769  0.1723E+02  0.1492E+02
     -6.707  0.2002E+02  0.1617E+02
     -6.644  0.2232E+02  0.1756E+02
     -6.582  0.2387E+02  0.1904E+02
     -6.520  0.2457E+02  0.2058E+02
     -6.458  0.2436E+02  0.2209E+02
     -6.395  0.2347E+02  0.2355E+02
     -6.333  0.2254E+02  0.2496E+02
     -6.271  0.2207E+02  0.2633E+02
     -6.208  0.2189E+02  0.2770E+02
     -6.146  0.2130E+02  0.2902E+02
     -6.084  0.1980E+02  0.3025E+02
     -6.022  0.1762E+02  0.3135E+02
     -5.959  0.1555E+02  0.3232E+02
     -5.897  0.1436E+02  0.3321E+02
     -5.835  0.1441E+02  0.3411E+02
     -5.773  0.1553E+02  0.3508E+02
     -5.710  0.1729E+02  0.3616E+02
     -5.648  0.1904E+02  0.3734E+02
     -5.586  0.2023E+02  0.3860E+02
     -5.523  0.2058E+02  0.3988E+02
     -5.461  0.2017E+02  0.4114E+02
     -5.399  0.1941E+02  0.4235E+02
     -5.337  0.1885E+02  0.4352E+02
     -5.274  0.1887E+02  0.4470E+02
     -5.212  0.1943E+02  0.4591E+02
     -5.150  0.2013E+02  0.4716E+02
     -5.087  0.2064E+02  0.4845E+02
     -5.025  0.2086E+02  0.4975E+02
     -4.963  0.2096E+02  0.5105E+02
     -4.901  0.2111E+02  0.5237E+02
     -4.838  0.2149E+02  0.5370E+02
     -4.776  0.2226E+02  0.5509E+02
     -4.714  0.2357E+02  0.5656E+02
     -4.652  0.2539E+02  0.5814E+02
     -4.589  0.2728E+02  0.5984E+02
     -4.527  0.2844E+02  0.6161E+02
     -4.465  0.2825E+02  0.6337E+02
     -4.402  0.2701E+02  0.6505E+02
     -4.340  0.2599E+02  0.6667E+02
     -4.278  0.2643E+02  0.6832E+02
     -4.216  0.2839E+02  0.7008E+02
     -4.153  0.3081E+02  0.7200E+02
     -4.091  0.3250E+02  0.7403E+02
     -4.029  0.3310E+02  0.7609E+02
     -3.966  0.3309E+02  0.7815E+02
     -3.904  0.3310E+02  0.8021E+02
     -3.842  0.3342E+02  0.8229E+02
     -3.780  0.3393E+02  0.8441E+02
     -3.717  0.3428E+02  0.8654E+02
     -3.655  0.3396E+02  0.8865E+02
     -3.593  0.3249E+02  0.9068E+02
     -3.530  0.2978E+02  0.9253E+02
     -3.468  0.2631E+02  0.9417E+02
     -3.406  0.2288E+02  0.9560E+02
     -3.344  0.2010E+02  0.9685E+02
     -3.281  0.1820E+02  0.9798E+02
     -3.219  0.1722E+02  0.9905E+02
     -3.157  0.1734E+02  0.1001E+03
     -3.095  0.1875E+02  0.1013E+03
     -3.032  0.2139E+02  0.1026E+03
     -2.970  0.2461E+02  0.1042E+03
     -2.908  0.2733E+02  0.1059E+03
     -2.845  0.2858E+02  0.1076E+03
     -2.783  0.2803E+02  0.1094E+03
     -2.721  0.2616E+02  0.1110E+03
     -2.659  0.2393E+02  0.1125E+03
     -2.596  0.2226E+02  0.1139E+03
     -2.534  0.2160E+02  0.1152E+03
     -2.472  0.2183E+02  0.1166E+03
     -2.409  0.2250E+02  0.1180E+03
     -2.347  0.2314E+02  0.1194E+03
     -2.285  0.2346E+02  0.1209E+03
     -2.223  0.2352E+02  0.1224E+03
     -2.160  0.2369E+02  0.1238E+03
     -2.098  0.2433E+02  0.1254E+03
     -2.036  0.2548E+02  0.1269E+03
     -1.974  0.2689E+02  0.1286E+03
     -1.911  0.2799E+02  0.1304E+03
     -1.849  0.2817E+02  0.1321E+03
     -1.787  0.2725E+02  0.1338E+03
     -1.724  0.2574E+02  0.1354E+03
     -1.662  0.2438E+02  0.1369E+03
     -1.600  0.2343E+02  0.1384E+03
     -1.538  0.2269E+02  0.1398E+03
     -1.475  0.2209E+02  0.1412E+03
     -1.413  0.2197E+02  0.1426E+03
     -1.351  0.2269E+02  0.1440E+03
     -1.288  0.2411E+02  0.1455E+03
     -1.226  0.2577E+02  0.1471E+03
     -1.164  0.2741E+02  0.1488E+03
     -1.102  0.2911E+02  0.1506E+03
     -1.039  0.3087E+02  0.1525E+03
     -0.977  0.3232E+02  0.1545E+03
     -0.915  0.3312E+02  0.1566E+03
     -0.853  0.3305E+02  0.1587E+03
     -0.790  0.3194E+02  0.1606E+03
     -0.728  0.2961E+02  0.1625E+03
     -0.666  0.2630E+02  0.1641E+03
     -0.603  0.2280E+02  0.1655E+03
     -0.541  0.1972E+02  0.1668E+03
     -0.479  0.1705E+02  0.1678E+03
     -0.417  0.1444E+02  0.1687E+03
     -0.354  0.1181E+02  0.1695E+03
     -0.292  0.9470E+01  0.1701E+03
     -0.230  0.7711E+01  0.1705E+03
     -0.167  0.6635E+01  0.1710E+03
     -0.105  0.6209E+01  0.1713E+03
     -0.043  0.6259E+01  0.1717E+03
      0.019  0.6376E+01  0.1721E+03
      0.082  0.6117E+01  0.1725E+03
      0.144  0.5450E+01  0.1728E+03
      0.206  0.4824E+01  0.1731E+03
      0.268  0.4658E+01  0.1734E+03
      0.331  0.4844E+01  0.1737E+03
      0.393  0.4886E+01  0.1740E+03
      0.455  0.4483E+01  0.1743E+03
      0.518  0.3870E+01  0.1746E+03
      0.580  0.3585E+01  0.1748E+03
      0.642  0.3973E+01  0.1750E+03
      0.704  0.4929E+01  0.1753E+03
      0.767  0.6029E+01  0.1757E+03
      0.829  0.6816E+01  0.1761E+03
      0.891  0.7007E+01  0.1766E+03
      0.954  0.6603E+01  0.1770E+03
      1.016  0.5854E+01  0.1774E+03
      1.078  0.5073E+01  0.1777E+03
      1.140  0.4441E+01  0.1779E+03
      1.203  0.3998E+01  0.1782E+03
      1.265  0.3751E+01  0.1784E+03
      1.327  0.3739E+01  0.1787E+03
      1.389  0.3974E+01  0.1789E+03
      1.452  0.4374E+01  0.1792E+03
      1.514  0.4793E+01  0.1795E+03
      1.576  0.5150E+01  0.1798E+03
      1.639  0.5504E+01  0.1801E+03
      1.701  0.5895E+01  0.1805E+03
      1.763  0.6136E+01  0.1809E+03
      1.825  0.5912E+01  0.1813E+03
      1.888  0.5179E+01  0.1816E+03
      1.950  0.4374E+01  0.1819E+03
      2.012  0.4092E+01  0.1821E+03
      2.075  0.4542E+01  0.1824E+03
      2.137  0.5355E+01  0.1827E+03
      2.199  0.5916E+01  0.1831E+03
      2.261  0.5909E+01  0.1835E+03
      2.324  0.5541E+01  0.1838E+03
      2.386  0.5218E+01  0.1841E+03
      2.448  0.5051E+01  0.1844E+03
      2.510  0.4756E+01  0.1847E+03
      2.573  0.4071E+01  0.1850E+03
      2.635  0.3201E+01  0.1852E+03
      2.697  0.2759E+01  0.1854E+03
      2.760  0.3252E+01  0.1856E+03
      2.822  0.4601E+01  0.1859E+03
      2.884  0.6097E+01  0.1862E+03
      2.946  0.6860E+01  0.1867E+03
      3.009  0.6468E+01  0.1871E+03
      3.071  0.5241E+01  0.1874E+03
      3.133  0.3924E+01  0.1876E+03
      3.196  0.3133E+01  0.1878E+03
      3.258  0.3028E+01  0.1880E+03
      3.320  0.3381E+01  0.1882E+03
      3.382  0.3825E+01  0.1885E+03
      3.445  0.4092E+01  0.1887E+03
      3.507  0.4114E+01  0.1890E+03
      3.569  0.3915E+01  0.1892E+03
      3.631  0.3530E+01  0.1894E+03
      3.694  0.3117E+01  0.1896E+03
      3.756  0.3018E+01  0.1898E+03
      3.818  0.3468E+01  0.1900E+03
      3.881  0.4234E+01  0.1903E+03
      3.943  0.4721E+01  0.1906E+03
      4.005  0.4476E+01  0.1909E+03
      4.067  0.3567E+01  0.1911E+03
      4.130  0.2490E+01  0.1913E+03
      4.192  0.1759E+01  0.1914E+03
      4.254  0.1558E+01  0.1915E+03
      4.317  0.1724E+01  0.1916E+03
      4.379  0.1947E+01  0.1917E+03
      4.441  0.1949E+01  0.1918E+03
      4.503  0.1615E+01  0.1919E+03
      4.566  0.1044E+01  0.1920E+03
      4.628  0.4721E+00  0.1920E+03
      4.690  0.9070E-01  0.1920E+03
      4.752 -0.6577E-01  0.1920E+03
      4.815 -0.8051E-01  0.1920E+03
      4.877 -0.4887E-01  0.1920E+03
      4.939 -0.2092E-01  0.1920E+03
      5.002 -0.6851E-02  0.1920E+03
      5.064 -0.1772E-02  0.1920E+03
      5.126 -0.3676E-03  0.1920E+03
      5.188 -0.6172E-04  0.1920E+03
      5.251 -0.8431E-05  0.1920E+03
      5.313 -0.9401E-06  0.1920E+03
      5.375 -0.8577E-07  0.1920E+03
      5.438 -0.6414E-08  0.1920E+03
      5.500 -0.3935E-09  0.1920E+03
      5.562 -0.1982E-10  0.1920E+03
      5.624 -0.8209E-12  0.1920E+03
      5.687 -0.2778E-13  0.1920E+03
      5.749 -0.6685E-15  0.1920E+03
      5.811  0.0000E+00  0.1920E+03
      5.874  0.0000E+00  0.1920E+03
      5.936  0.0000E+00  0.1920E+03
      5.998  0.0000E+00  0.1920E+03
      6.060  0.0000E+00  0.1920E+03
      6.123  0.0000E+00  0.1920E+03
      6.185  0.0000E+00  0.1920E+03
      6.247  0.0000E+00  0.1920E+03
      6.309  0.0000E+00  0.1920E+03
      6.372  0.0000E+00  0.1920E+03
      6.434  0.0000E+00  0.1920E+03
      6.496  0.0000E+00  0.1920E+03
