   16   16    1    1
  0.5150799E+02  0.5557859E-09  0.5557859E-09  0.3080696E-08  0.5000000E-15
  1.000000000000000E-004
  CAR 
 unknown system                          
    160     52     96
 
  0.6250000E-01  0.6250000E-01  0.0000000E+00  0.1041667E-01
    1      -10.187154   1.000000
    2       -8.916483   1.000000
    3       -7.858295   1.000000
    4       -7.726057   1.000000
    5       -7.458880   1.000000
    6       -7.432486   1.000000
    7       -7.430111   1.000000
    8       -7.307632   1.000000
    9       -7.296744   1.000000
   10       -7.279385   1.000000
   11       -6.837073   1.000000
   12       -6.831251   1.000000
   13       -6.822172   1.000000
   14       -6.803006   1.000000
   15       -6.791500   1.000000
   16       -6.594845   1.000000
   17       -6.543152   1.000000
   18       -6.507005   1.000000
   19       -6.475115   1.000000
   20       -5.797270   1.000000
   21       -5.789209   1.000000
   22       -5.681080   1.000000
   23       -4.920015   1.000000
   24       -4.914344   1.000000
   25       -4.808889   1.000000
   26       -4.681634   1.000000
   27       -4.653711   1.000000
   28       -4.643977   1.000000
   29       -4.608174   1.000000
   30       -4.524833   1.000000
   31       -4.367165   1.000000
   32       -4.321294   1.000000
   33       -4.210411   1.000000
   34       -4.198184   1.000000
   35       -4.064047   1.000000
   36       -4.037494   1.000000
   37       -3.990454   1.000000
   38       -3.985791   1.000000
   39       -3.952115   1.000000
   40       -3.840389   1.000000
   41       -3.695356   1.000000
   42       -3.661424   1.000000
   43       -3.502108   1.000000
   44       -3.462715   1.000000
   45       -3.387891   1.000000
   46       -3.165986   1.000000
   47       -3.149355   1.000000
   48       -2.931180   1.000000
   49       -2.917890   1.000000
   50       -2.773553   1.000000
   51       -2.736787   1.000000
   52       -2.351479   1.000000
   53       -2.349048   1.000000
   54       -2.119286   1.000000
   55       -2.111532   1.000000
   56       -1.841194   1.000000
   57       -1.837910   1.000000
   58       -1.683635   1.000000
   59       -1.656669   1.000000
   60       -1.580259   1.000000
   61       -1.562639   1.000001
   62       -1.503222   1.000006
   63       -1.275499   1.002453
   64       -1.151537   1.018374
   65       -1.115053   1.026680
   66       -1.104090   1.029105
   67       -1.032223   1.032983
   68       -1.019107   1.028942
   69       -0.998498   1.017554
   70       -0.903882   0.850691
   71       -0.807883   0.487921
   72       -0.789664   0.411374
   73       -0.752295   0.264022
   74       -0.735619   0.205636
   75       -0.702112   0.107139
   76       -0.693819   0.087016
   77       -0.670412   0.039557
   78       -0.529634  -0.031569
   79       -0.513342  -0.028228
   80       -0.490289  -0.022962
   81       -0.339427  -0.002146
   82       -0.200576  -0.000070
   83       -0.101628  -0.000003
   84       -0.018318  -0.000000
   85        0.034334  -0.000000
   86        0.088702  -0.000000
   87        0.374940  -0.000000
   88        0.414960  -0.000000
   89        1.200322  -0.000000
   90        1.492279  -0.000000
   91        1.619130  -0.000000
   92        1.642610  -0.000000
   93        1.770320  -0.000000
   94        1.775224  -0.000000
   95        2.586196  -0.000000
   96        2.587854  -0.000000
 
  0.0000000E+00  0.6250000E-01  0.0000000E+00  0.2083333E-01
    1      -10.187157   1.000000
    2       -8.916484   1.000000
    3       -7.858296   1.000000
    4       -7.726064   1.000000
    5       -7.458196   1.000000
    6       -7.436294   1.000000
    7       -7.427036   1.000000
    8       -7.308414   1.000000
    9       -7.295870   1.000000
   10       -7.279461   1.000000
   11       -6.836846   1.000000
   12       -6.829162   1.000000
   13       -6.824781   1.000000
   14       -6.801798   1.000000
   15       -6.792662   1.000000
   16       -6.593304   1.000000
   17       -6.540442   1.000000
   18       -6.515119   1.000000
   19       -6.470936   1.000000
   20       -5.798793   1.000000
   21       -5.787920   1.000000
   22       -5.680821   1.000000
   23       -4.926249   1.000000
   24       -4.908597   1.000000
   25       -4.808849   1.000000
   26       -4.673635   1.000000
   27       -4.659698   1.000000
   28       -4.645327   1.000000
   29       -4.607968   1.000000
   30       -4.525373   1.000000
   31       -4.367149   1.000000
   32       -4.321295   1.000000
   33       -4.208056   1.000000
   34       -4.200069   1.000000
   35       -4.065731   1.000000
   36       -4.035517   1.000000
   37       -3.996574   1.000000
   38       -3.983020   1.000000
   39       -3.949100   1.000000
   40       -3.842423   1.000000
   41       -3.694840   1.000000
   42       -3.661035   1.000000
   43       -3.497960   1.000000
   44       -3.465237   1.000000
   45       -3.387954   1.000000
   46       -3.190034   1.000000
   47       -3.119424   1.000000
   48       -2.948361   1.000000
   49       -2.887980   1.000000
   50       -2.817501   1.000000
   51       -2.711715   1.000000
   52       -2.356639   1.000000
   53       -2.342475   1.000000
   54       -2.132111   1.000000
   55       -2.106612   1.000000
   56       -1.866923   1.000000
   57       -1.806946   1.000000
   58       -1.698182   1.000000
   59       -1.654906   1.000000
   60       -1.586569   1.000000
   61       -1.529228   1.000002
   62       -1.480551   1.000012
   63       -1.308383   1.001220
   64       -1.177240   1.013213
   65       -1.134109   1.022288
   66       -1.093628   1.031232
   67       -1.060302   1.035378
   68       -0.997266   1.016650
   69       -0.943915   0.947394
   70       -0.896177   0.827532
   71       -0.817579   0.528927
   72       -0.782509   0.381861
   73       -0.771248   0.336458
   74       -0.738386   0.214931
   75       -0.702672   0.108559
   76       -0.698929   0.099211
   77       -0.661513   0.025046
   78       -0.529159  -0.031480
   79       -0.522072  -0.030087
   80       -0.490886  -0.023100
   81       -0.352641  -0.002804
   82       -0.201712  -0.000072
   83       -0.076500  -0.000001
   84       -0.001297  -0.000000
   85        0.032744  -0.000000
   86        0.081065  -0.000000
   87        0.326222  -0.000000
   88        0.450277  -0.000000
   89        1.201467  -0.000000
   90        1.490300  -0.000000
   91        1.630590  -0.000000
   92        1.633808  -0.000000
   93        1.734302  -0.000000
   94        1.809742  -0.000000
   95        2.580218  -0.000000
   96        2.592780  -0.000000
 
  0.1875000E+00  0.6250000E-01  0.0000000E+00  0.2083333E-01
    1       -9.983167   1.000000
    2       -8.714932   1.000000
    3       -7.654192   1.000000
    4       -7.531004   1.000000
    5       -7.440010   1.000000
    6       -7.361837   1.000000
    7       -7.244017   1.000000
    8       -7.225185   1.000000
    9       -7.176414   1.000000
   10       -7.108938   1.000000
   11       -6.751552   1.000000
   12       -6.727640   1.000000
   13       -6.722637   1.000000
   14       -6.710710   1.000000
   15       -6.653220   1.000000
   16       -6.481615   1.000000
   17       -6.418531   1.000000
   18       -6.372765   1.000000
   19       -6.292298   1.000000
   20       -5.740471   1.000000
   21       -5.724140   1.000000
   22       -5.626758   1.000000
   23       -4.967503   1.000000
   24       -4.903667   1.000000
   25       -4.848257   1.000000
   26       -4.719941   1.000000
   27       -4.669492   1.000000
   28       -4.591447   1.000000
   29       -4.576305   1.000000
   30       -4.540549   1.000000
   31       -4.474907   1.000000
   32       -4.207263   1.000000
   33       -4.172178   1.000000
   34       -4.140536   1.000000
   35       -4.110079   1.000000
   36       -4.035680   1.000000
   37       -4.005277   1.000000
   38       -3.984492   1.000000
   39       -3.925364   1.000000
   40       -3.873344   1.000000
   41       -3.781903   1.000000
   42       -3.644882   1.000000
   43       -3.618700   1.000000
   44       -3.545175   1.000000
   45       -3.518061   1.000000
   46       -3.475198   1.000000
   47       -3.284640   1.000000
   48       -3.145023   1.000000
   49       -2.948516   1.000000
   50       -2.825777   1.000000
   51       -2.680774   1.000000
   52       -2.471893   1.000000
   53       -2.437691   1.000000
   54       -2.306052   1.000000
   55       -2.152401   1.000000
   56       -2.020109   1.000000
   57       -2.000326   1.000000
   58       -1.891881   1.000000
   59       -1.872487   1.000000
   60       -1.808862   1.000000
   61       -1.755059   1.000000
   62       -1.691426   1.000000
   63       -1.637465   1.000000
   64       -1.560392   1.000001
   65       -1.516581   1.000004
   66       -1.445660   1.000034
   67       -1.273743   1.002542
   68       -1.198752   1.009656
   69       -1.153851   1.017874
   70       -1.070056   1.034738
   71       -1.051983   1.035404
   72       -1.022888   1.030337
   73       -0.958595   0.972843
   74       -0.948385   0.955698
   75       -0.856873   0.689569
   76       -0.833853   0.597087
   77       -0.797485   0.444054
   78       -0.761675   0.299161
   79       -0.738242   0.214442
   80       -0.635681  -0.006881
   81       -0.560471  -0.035353
   82       -0.478019  -0.020159
   83       -0.364607  -0.003540
   84       -0.299820  -0.000904
   85       -0.177993  -0.000036
   86        0.181904  -0.000000
   87        0.262362  -0.000000
   88        0.818373  -0.000000
   89        0.844358  -0.000000
   90        1.100161  -0.000000
   91        1.284610  -0.000000
   92        1.621781  -0.000000
   93        2.140967  -0.000000
   94        2.523304  -0.000000
   95        3.012952  -0.000000
   96        3.366905  -0.000000
 
  0.1250000E+00  0.1875000E+00  0.0000000E+00  0.2083333E-01
    1       -9.983159   1.000000
    2       -8.714931   1.000000
    3       -7.654188   1.000000
    4       -7.531026   1.000000
    5       -7.439982   1.000000
    6       -7.361592   1.000000
    7       -7.243940   1.000000
    8       -7.224895   1.000000
    9       -7.176910   1.000000
   10       -7.108956   1.000000
   11       -6.751819   1.000000
   12       -6.730187   1.000000
   13       -6.718554   1.000000
   14       -6.712696   1.000000
   15       -6.651773   1.000000
   16       -6.484739   1.000000
   17       -6.420617   1.000000
   18       -6.364231   1.000000
   19       -6.296622   1.000000
   20       -5.734828   1.000000
   21       -5.728969   1.000000
   22       -5.627636   1.000000
   23       -4.961148   1.000000
   24       -4.909772   1.000000
   25       -4.847307   1.000000
   26       -4.728690   1.000000
   27       -4.665412   1.000000
   28       -4.588545   1.000000
   29       -4.576211   1.000000
   30       -4.538954   1.000000
   31       -4.475594   1.000000
   32       -4.208328   1.000000
   33       -4.172040   1.000000
   34       -4.143096   1.000000
   35       -4.106427   1.000000
   36       -4.030549   1.000000
   37       -4.010117   1.000000
   38       -3.977197   1.000000
   39       -3.928397   1.000000
   40       -3.876442   1.000000
   41       -3.783829   1.000000
   42       -3.654156   1.000000
   43       -3.604168   1.000000
   44       -3.552721   1.000000
   45       -3.518739   1.000000
   46       -3.466511   1.000000
   47       -3.304297   1.000000
   48       -3.130926   1.000000
   49       -2.956017   1.000000
   50       -2.807890   1.000000
   51       -2.693540   1.000000
   52       -2.474648   1.000000
   53       -2.434822   1.000000
   54       -2.283340   1.000000
   55       -2.166924   1.000000
   56       -2.019499   1.000000
   57       -1.998232   1.000000
   58       -1.917626   1.000000
   59       -1.847366   1.000000
   60       -1.813942   1.000000
   61       -1.767040   1.000000
   62       -1.704818   1.000000
   63       -1.611069   1.000000
   64       -1.579621   1.000000
   65       -1.513332   1.000004
   66       -1.435995   1.000045
   67       -1.274293   1.002514
   68       -1.209730   1.008126
   69       -1.140125   1.020912
   70       -1.080569   1.033456
   71       -1.033354   1.033232
   72       -1.017504   1.028291
   73       -0.965048   0.982406
   74       -0.941844   0.943378
   75       -0.877485   0.765748
   76       -0.831977   0.589307
   77       -0.805642   0.478444
   78       -0.758213   0.286017
   79       -0.726108   0.174977
   80       -0.643876   0.001688
   81       -0.542843  -0.033731
   82       -0.452003  -0.014676
   83       -0.405480  -0.007337
   84       -0.297876  -0.000865
   85       -0.184985  -0.000045
   86        0.185461  -0.000000
   87        0.271032  -0.000000
   88        0.811157  -0.000000
   89        0.846538  -0.000000
   90        1.099287  -0.000000
   91        1.286469  -0.000000
   92        1.621200  -0.000000
   93        2.142214  -0.000000
   94        2.522790  -0.000000
   95        3.012836  -0.000000
   96        3.366857  -0.000000
 
 -0.6250000E-01  0.1250000E+00  0.0000000E+00  0.2083333E-01
    1       -9.983180   1.000000
    2       -8.714933   1.000000
    3       -7.654202   1.000000
    4       -7.531021   1.000000
    5       -7.439897   1.000000
    6       -7.362203   1.000000
    7       -7.243869   1.000000
    8       -7.225618   1.000000
    9       -7.176327   1.000000
   10       -7.108677   1.000000
   11       -6.751358   1.000000
   12       -6.727438   1.000000
   13       -6.718285   1.000000
   14       -6.716616   1.000000
   15       -6.651784   1.000000
   16       -6.476644   1.000000
   17       -6.426345   1.000000
   18       -6.371652   1.000000
   19       -6.290484   1.000000
   20       -5.742766   1.000000
   21       -5.722966   1.000000
   22       -5.625518   1.000000
   23       -4.971111   1.000000
   24       -4.900029   1.000000
   25       -4.849297   1.000000
   26       -4.716941   1.000000
   27       -4.669724   1.000000
   28       -4.586601   1.000000
   29       -4.578896   1.000000
   30       -4.546198   1.000000
   31       -4.472592   1.000000
   32       -4.203303   1.000000
   33       -4.173077   1.000000
   34       -4.149003   1.000000
   35       -4.103788   1.000000
   36       -4.040568   1.000000
   37       -4.017818   1.000000
   38       -3.979879   1.000000
   39       -3.916972   1.000000
   40       -3.873028   1.000000
   41       -3.776822   1.000000
   42       -3.647749   1.000000
   43       -3.626899   1.000000
   44       -3.541942   1.000000
   45       -3.509273   1.000000
   46       -3.471589   1.000000
   47       -3.302422   1.000000
   48       -3.108217   1.000000
   49       -2.979861   1.000000
   50       -2.828916   1.000000
   51       -2.668118   1.000000
   52       -2.480502   1.000000
   53       -2.426032   1.000000
   54       -2.336268   1.000000
   55       -2.132180   1.000000
   56       -2.037615   1.000000
   57       -1.979412   1.000000
   58       -1.933374   1.000000
   59       -1.846368   1.000000
   60       -1.798262   1.000000
   61       -1.714647   1.000000
   62       -1.702250   1.000000
   63       -1.643278   1.000000
   64       -1.551655   1.000001
   65       -1.534458   1.000002
   66       -1.435431   1.000046
   67       -1.286092   1.001973
   68       -1.220565   1.006799
   69       -1.155707   1.017478
   70       -1.093945   1.031171
   71       -1.050817   1.035363
   72       -0.987591   1.008576
   73       -0.960901   0.976372
   74       -0.922139   0.899786
   75       -0.851992   0.670506
   76       -0.842870   0.634032
   77       -0.824118   0.556474
   78       -0.777004   0.359483
   79       -0.695655   0.091321
   80       -0.647352   0.005747
   81       -0.585941  -0.033671
   82       -0.465738  -0.017471
   83       -0.358390  -0.003140
   84       -0.291203  -0.000740
   85       -0.187244  -0.000048
   86        0.183925  -0.000000
   87        0.263148  -0.000000
   88        0.814823  -0.000000
   89        0.847677  -0.000000
   90        1.098041  -0.000000
   91        1.284367  -0.000000
   92        1.622599  -0.000000
   93        2.140862  -0.000000
   94        2.523427  -0.000000
   95        3.012986  -0.000000
   96        3.368116  -0.000000
 
  0.3125000E+00  0.6250000E-01  0.0000000E+00  0.2083333E-01
    1       -9.529524   1.000000
    2       -8.279001   1.000000
    3       -7.538982   1.000000
    4       -7.229008   1.000000
    5       -7.121861   1.000000
    6       -7.109814   1.000000
    7       -7.100352   1.000000
    8       -6.906067   1.000000
    9       -6.874918   1.000000
   10       -6.798946   1.000000
   11       -6.670270   1.000000
   12       -6.508939   1.000000
   13       -6.493383   1.000000
   14       -6.450091   1.000000
   15       -6.345203   1.000000
   16       -6.279233   1.000000
   17       -6.124838   1.000000
   18       -6.038736   1.000000
   19       -5.915748   1.000000
   20       -5.616522   1.000000
   21       -5.572872   1.000000
   22       -5.510201   1.000000
   23       -5.104457   1.000000
   24       -5.044375   1.000000
   25       -4.946717   1.000000
   26       -4.846156   1.000000
   27       -4.797828   1.000000
   28       -4.720377   1.000000
   29       -4.526302   1.000000
   30       -4.486178   1.000000
   31       -4.427130   1.000000
   32       -4.289675   1.000000
   33       -4.264672   1.000000
   34       -4.237354   1.000000
   35       -4.134779   1.000000
   36       -4.078979   1.000000
   37       -4.007659   1.000000
   38       -3.926780   1.000000
   39       -3.901809   1.000000
   40       -3.873761   1.000000
   41       -3.832569   1.000000
   42       -3.807527   1.000000
   43       -3.786708   1.000000
   44       -3.777096   1.000000
   45       -3.635904   1.000000
   46       -3.535633   1.000000
   47       -3.457308   1.000000
   48       -3.225356   1.000000
   49       -3.066905   1.000000
   50       -2.998502   1.000000
   51       -2.891640   1.000000
   52       -2.794674   1.000000
   53       -2.720456   1.000000
   54       -2.689529   1.000000
   55       -2.601190   1.000000
   56       -2.582309   1.000000
   57       -2.519128   1.000000
   58       -2.475071   1.000000
   59       -2.378556   1.000000
   60       -2.344923   1.000000
   61       -2.196689   1.000000
   62       -2.121740   1.000000
   63       -2.023871   1.000000
   64       -1.911907   1.000000
   65       -1.867179   1.000000
   66       -1.820349   1.000000
   67       -1.685372   1.000000
   68       -1.612064   1.000000
   69       -1.558428   1.000001
   70       -1.510565   1.000004
   71       -1.475158   1.000014
   72       -1.356560   1.000392
   73       -1.273029   1.002579
   74       -1.263092   1.003139
   75       -1.210423   1.008035
   76       -1.122582   1.024953
   77       -1.027501   1.031781
   78       -0.979049   0.999927
   79       -0.915993   0.884184
   80       -0.809876   0.496349
   81       -0.758766   0.288104
   82       -0.724358   0.169560
   83       -0.640017  -0.002520
   84       -0.555115  -0.035050
   85       -0.456796  -0.015622
   86        0.309761  -0.000000
   87        0.370392  -0.000000
   88        0.543334  -0.000000
   89        0.939519  -0.000000
   90        1.694213  -0.000000
   91        1.899411  -0.000000
   92        1.940509  -0.000000
   93        2.286847  -0.000000
   94        2.665108  -0.000000
   95        3.234669  -0.000000
   96        3.913450  -0.000000
 
  0.2500000E+00  0.3125000E+00  0.0000000E+00  0.2083333E-01
    1       -9.529474   1.000000
    2       -8.278987   1.000000
    3       -7.538917   1.000000
    4       -7.228835   1.000000
    5       -7.119887   1.000000
    6       -7.110716   1.000000
    7       -7.100319   1.000000
    8       -6.904887   1.000000
    9       -6.876708   1.000000
   10       -6.799395   1.000000
   11       -6.670469   1.000000
   12       -6.508822   1.000000
   13       -6.492375   1.000000
   14       -6.451801   1.000000
   15       -6.343156   1.000000
   16       -6.282634   1.000000
   17       -6.127817   1.000000
   18       -6.024790   1.000000
   19       -5.927064   1.000000
   20       -5.601303   1.000000
   21       -5.581163   1.000000
   22       -5.516791   1.000000
   23       -5.097044   1.000000
   24       -5.045232   1.000000
   25       -4.951078   1.000000
   26       -4.853410   1.000000
   27       -4.791614   1.000000
   28       -4.725069   1.000000
   29       -4.530497   1.000000
   30       -4.479939   1.000000
   31       -4.423952   1.000000
   32       -4.290878   1.000000
   33       -4.258310   1.000000
   34       -4.226708   1.000000
   35       -4.140680   1.000000
   36       -4.078703   1.000000
   37       -4.017302   1.000000
   38       -3.932115   1.000000
   39       -3.889145   1.000000
   40       -3.867164   1.000000
   41       -3.831466   1.000000
   42       -3.817999   1.000000
   43       -3.791624   1.000000
   44       -3.770812   1.000000
   45       -3.660128   1.000000
   46       -3.541335   1.000000
   47       -3.437401   1.000000
   48       -3.228587   1.000000
   49       -3.053808   1.000000
   50       -3.004044   1.000000
   51       -2.874098   1.000000
   52       -2.801292   1.000000
   53       -2.733028   1.000000
   54       -2.681728   1.000000
   55       -2.602276   1.000000
   56       -2.583107   1.000000
   57       -2.512042   1.000000
   58       -2.464801   1.000000
   59       -2.408409   1.000000
   60       -2.323975   1.000000
   61       -2.223949   1.000000
   62       -2.145141   1.000000
   63       -1.956713   1.000000
   64       -1.929359   1.000000
   65       -1.892061   1.000000
   66       -1.800039   1.000000
   67       -1.675640   1.000000
   68       -1.604048   1.000000
   69       -1.584012   1.000000
   70       -1.521732   1.000003
   71       -1.473241   1.000015
   72       -1.394113   1.000148
   73       -1.280296   1.002224
   74       -1.230840   1.005701
   75       -1.151864   1.018303
   76       -1.109916   1.027834
   77       -1.073388   1.034391
   78       -0.986221   1.007288
   79       -0.893902   0.820428
   80       -0.831753   0.588378
   81       -0.789515   0.410752
   82       -0.719923   0.156157
   83       -0.620197  -0.019498
   84       -0.503541  -0.026022
   85       -0.497560  -0.024645
   86        0.309311  -0.000000
   87        0.369851  -0.000000
   88        0.545381  -0.000000
   89        0.936671  -0.000000
   90        1.711886  -0.000000
   91        1.893603  -0.000000
   92        1.913419  -0.000000
   93        2.304883  -0.000000
   94        2.665167  -0.000000
   95        3.232699  -0.000000
   96        3.913265  -0.000000
 
 -0.6250000E-01  0.2500000E+00  0.0000000E+00  0.2083333E-01
    1       -9.529546   1.000000
    2       -8.279000   1.000000
    3       -7.539000   1.000000
    4       -7.229056   1.000000
    5       -7.122153   1.000000
    6       -7.109306   1.000000
    7       -7.100719   1.000000
    8       -6.906368   1.000000
    9       -6.874896   1.000000
   10       -6.799097   1.000000
   11       -6.670435   1.000000
   12       -6.510006   1.000000
   13       -6.490555   1.000000
   14       -6.451643   1.000000
   15       -6.339786   1.000000
   16       -6.284987   1.000000
   17       -6.124871   1.000000
   18       -6.037338   1.000000
   19       -5.916216   1.000000
   20       -5.616235   1.000000
   21       -5.573195   1.000000
   22       -5.509753   1.000000
   23       -5.102709   1.000000
   24       -5.047049   1.000000
   25       -4.946002   1.000000
   26       -4.845538   1.000000
   27       -4.799144   1.000000
   28       -4.720525   1.000000
   29       -4.524559   1.000000
   30       -4.481533   1.000000
   31       -4.431565   1.000000
   32       -4.284670   1.000000
   33       -4.268237   1.000000
   34       -4.244805   1.000000
   35       -4.132436   1.000000
   36       -4.079526   1.000000
   37       -4.002474   1.000000
   38       -3.938663   1.000000
   39       -3.904694   1.000000
   40       -3.863534   1.000000
   41       -3.823429   1.000000
   42       -3.816890   1.000000
   43       -3.788085   1.000000
   44       -3.775311   1.000000
   45       -3.632559   1.000000
   46       -3.530785   1.000000
   47       -3.456677   1.000000
   48       -3.226720   1.000000
   49       -3.076813   1.000000
   50       -3.000508   1.000000
   51       -2.889351   1.000000
   52       -2.782791   1.000000
   53       -2.735096   1.000000
   54       -2.679032   1.000000
   55       -2.599631   1.000000
   56       -2.588271   1.000000
   57       -2.531068   1.000000
   58       -2.476770   1.000000
   59       -2.390842   1.000000
   60       -2.324772   1.000000
   61       -2.184716   1.000000
   62       -2.102073   1.000000
   63       -2.059795   1.000000
   64       -1.895471   1.000000
   65       -1.852413   1.000000
   66       -1.818368   1.000000
   67       -1.715534   1.000000
   68       -1.599520   1.000000
   69       -1.546587   1.000001
   70       -1.524025   1.000003
   71       -1.459972   1.000022
   72       -1.388034   1.000174
   73       -1.277039   1.002378
   74       -1.265428   1.002999
   75       -1.198264   1.009728
   76       -1.114642   1.026773
   77       -1.018387   1.028654
   78       -0.981068   1.002106
   79       -0.915724   0.883481
   80       -0.811691   0.504029
   81       -0.753658   0.269032
   82       -0.731462   0.191986
   83       -0.655255   0.015957
   84       -0.545762  -0.034114
   85       -0.454654  -0.015195
   86        0.309826  -0.000000
   87        0.371354  -0.000000
   88        0.542273  -0.000000
   89        0.938484  -0.000000
   90        1.694171  -0.000000
   91        1.909768  -0.000000
   92        1.931271  -0.000000
   93        2.287227  -0.000000
   94        2.663678  -0.000000
   95        3.235826  -0.000000
   96        3.913481  -0.000000
 
  0.4375000E+00  0.6250000E-01  0.0000000E+00  0.2083333E-01
    1       -8.890432   1.000000
    2       -7.905631   1.000000
    3       -7.716597   1.000000
    4       -7.141396   1.000000
    5       -6.786771   1.000000
    6       -6.770526   1.000000
    7       -6.610181   1.000000
    8       -6.570537   1.000000
    9       -6.540377   1.000000
   10       -6.530994   1.000000
   11       -6.482698   1.000000
   12       -6.237222   1.000000
   13       -6.180804   1.000000
   14       -6.071635   1.000000
   15       -6.055190   1.000000
   16       -5.986009   1.000000
   17       -5.837598   1.000000
   18       -5.691384   1.000000
   19       -5.537771   1.000000
   20       -5.434256   1.000000
   21       -5.391141   1.000000
   22       -5.351283   1.000000
   23       -5.283077   1.000000
   24       -5.201220   1.000000
   25       -5.059380   1.000000
   26       -5.022983   1.000000
   27       -4.971506   1.000000
   28       -4.770284   1.000000
   29       -4.718371   1.000000
   30       -4.672370   1.000000
   31       -4.641026   1.000000
   32       -4.507380   1.000000
   33       -4.457853   1.000000
   34       -4.427490   1.000000
   35       -4.347411   1.000000
   36       -4.222021   1.000000
   37       -4.131967   1.000000
   38       -4.092217   1.000000
   39       -3.979361   1.000000
   40       -3.900095   1.000000
   41       -3.791848   1.000000
   42       -3.775072   1.000000
   43       -3.713066   1.000000
   44       -3.679057   1.000000
   45       -3.639640   1.000000
   46       -3.586971   1.000000
   47       -3.551739   1.000000
   48       -3.496162   1.000000
   49       -3.376440   1.000000
   50       -3.318996   1.000000
   51       -3.280142   1.000000
   52       -3.230396   1.000000
   53       -3.183525   1.000000
   54       -3.032533   1.000000
   55       -2.994059   1.000000
   56       -2.912900   1.000000
   57       -2.845075   1.000000
   58       -2.783872   1.000000
   59       -2.739969   1.000000
   60       -2.537350   1.000000
   61       -2.484086   1.000000
   62       -2.388070   1.000000
   63       -2.342394   1.000000
   64       -2.278939   1.000000
   65       -2.180272   1.000000
   66       -2.153422   1.000000
   67       -2.103630   1.000000
   68       -1.966060   1.000000
   69       -1.931312   1.000000
   70       -1.880565   1.000000
   71       -1.866852   1.000000
   72       -1.775048   1.000000
   73       -1.637222   1.000000
   74       -1.426924   1.000059
   75       -1.390875   1.000161
   76       -1.308622   1.001214
   77       -1.207672   1.008398
   78       -1.052131   1.035408
   79       -0.933950   0.927090
   80       -0.844466   0.640487
   81       -0.802070   0.463357
   82       -0.717127   0.147947
   83       -0.704468   0.113171
   84       -0.564943  -0.035455
   85       -0.473536  -0.019161
   86       -0.209454  -0.000090
   87        0.685145  -0.000000
   88        1.015156  -0.000000
   89        1.077032  -0.000000
   90        1.775252  -0.000000
   91        1.963913  -0.000000
   92        2.116921  -0.000000
   93        2.444241  -0.000000
   94        3.031896  -0.000000
   95        3.583104  -0.000000
   96        4.002244  -0.000000
 
  0.3750000E+00  0.4375000E+00  0.0000000E+00  0.2083333E-01
    1       -8.890268   1.000000
    2       -7.905318   1.000000
    3       -7.716755   1.000000
    4       -7.141993   1.000000
    5       -6.784043   1.000000
    6       -6.770055   1.000000
    7       -6.603068   1.000000
    8       -6.561486   1.000000
    9       -6.551114   1.000000
   10       -6.539648   1.000000
   11       -6.482346   1.000000
   12       -6.237407   1.000000
   13       -6.180000   1.000000
   14       -6.075846   1.000000
   15       -6.054721   1.000000
   16       -5.984241   1.000000
   17       -5.835569   1.000000
   18       -5.684661   1.000000
   19       -5.549685   1.000000
   20       -5.441691   1.000000