   16   16    1    1
  0.5150799E+02  0.5557859E-09  0.5557859E-09  0.3080696E-08  0.5000000E-15
  1.000000000000000E-004
  CAR 
 unknown system                          
    160     52     96
 
  0.6250000E-01  0.6250000E-01  0.0000000E+00  0.2083333E-01
    1      -10.187144   1.000000
    2       -8.916468   1.000000
    3       -7.858279   1.000000
    4       -7.726049   1.000000
    5       -7.458184   1.000000
    6       -7.436282   1.000000
    7       -7.427024   1.000000
    8       -7.308402   1.000000
    9       -7.295859   1.000000
   10       -7.279448   1.000000
   11       -6.836833   1.000000
   12       -6.829150   1.000000
   13       -6.824768   1.000000
   14       -6.801782   1.000000
   15       -6.792646   1.000000
   16       -6.593285   1.000000
   17       -6.540423   1.000000
   18       -6.515098   1.000000
   19       -6.470915   1.000000
   20       -5.798777   1.000000
   21       -5.787904   1.000000
   22       -5.680803   1.000000
   23       -4.926233   1.000000
   24       -4.908581   1.000000
   25       -4.808833   1.000000
   26       -4.673620   1.000000
   27       -4.659683   1.000000
   28       -4.645312   1.000000
   29       -4.607955   1.000000
   30       -4.525358   1.000000
   31       -4.367138   1.000000
   32       -4.321286   1.000000
   33       -4.208045   1.000000
   34       -4.200059   1.000000
   35       -4.065714   1.000000
   36       -4.035502   1.000000
   37       -3.996560   1.000000
   38       -3.983005   1.000000
   39       -3.949086   1.000000
   40       -3.842407   1.000000
   41       -3.694818   1.000000
   42       -3.661014   1.000000
   43       -3.497943   1.000000
   44       -3.465221   1.000000
   45       -3.387938   1.000000
   46       -3.190018   1.000000
   47       -3.119409   1.000000
   48       -2.948346   1.000000
   49       -2.887964   1.000000
   50       -2.817485   1.000000
   51       -2.711699   1.000000
   52       -2.356626   1.000000
   53       -2.342464   1.000000
   54       -2.132095   1.000000
   55       -2.106597   1.000000
   56       -1.866906   1.000000
   57       -1.806929   1.000000
   58       -1.698166   1.000000
   59       -1.654888   1.000000
   60       -1.586553   1.000000
   61       -1.529211   1.000002
   62       -1.480533   1.000012
   63       -1.308366   1.001220
   64       -1.177225   1.013213
   65       -1.134094   1.022288
   66       -1.093613   1.031232
   67       -1.060286   1.035378
   68       -0.997251   1.016651
   69       -0.943899   0.947392
   70       -0.896164   0.827539
   71       -0.817565   0.528931
   72       -0.782492   0.381853
   73       -0.771232   0.336459
   74       -0.738368   0.214922
   75       -0.702660   0.108567
   76       -0.698915   0.099213
   77       -0.661504   0.025056
   78       -0.529149  -0.031481
   79       -0.522059  -0.030087
   80       -0.490876  -0.023101
   81       -0.352622  -0.002804
   82       -0.201694  -0.000072
   83       -0.076483  -0.000001
   84       -0.001276  -0.000000
   85        0.032760  -0.000000
   86        0.081091  -0.000000
   87        0.326240  -0.000000
   88        0.450295  -0.000000
   89        1.201481  -0.000000
   90        1.490316  -0.000000
   91        1.630605  -0.000000
   92        1.633825  -0.000000
   93        1.734319  -0.000000
   94        1.809757  -0.000000
   95        2.580233  -0.000000
   96        2.592795  -0.000000
 
  0.0000000E+00  0.6250000E-01  0.0000000E+00  0.1041667E-01
    1      -10.187141   1.000000
    2       -8.916467   1.000000
    3       -7.858278   1.000000
    4       -7.726042   1.000000
    5       -7.458869   1.000000
    6       -7.432474   1.000000
    7       -7.430099   1.000000
    8       -7.307622   1.000000
    9       -7.296732   1.000000
   10       -7.279372   1.000000
   11       -6.837060   1.000000
   12       -6.831239   1.000000
   13       -6.822159   1.000000
   14       -6.802991   1.000000
   15       -6.791484   1.000000
   16       -6.594826   1.000000
   17       -6.543133   1.000000
   18       -6.506983   1.000000
   19       -6.475094   1.000000
   20       -5.797253   1.000000
   21       -5.789192   1.000000
   22       -5.681062   1.000000
   23       -4.919999   1.000000
   24       -4.914327   1.000000
   25       -4.808873   1.000000
   26       -4.681620   1.000000
   27       -4.653696   1.000000
   28       -4.643962   1.000000
   29       -4.608162   1.000000
   30       -4.524819   1.000000
   31       -4.367155   1.000000
   32       -4.321282   1.000000
   33       -4.210401   1.000000
   34       -4.198172   1.000000
   35       -4.064031   1.000000
   36       -4.037479   1.000000
   37       -3.990442   1.000000
   38       -3.985776   1.000000
   39       -3.952101   1.000000
   40       -3.840373   1.000000
   41       -3.695335   1.000000
   42       -3.661401   1.000000
   43       -3.502091   1.000000
   44       -3.462699   1.000000
   45       -3.387876   1.000000
   46       -3.165971   1.000000
   47       -3.149338   1.000000
   48       -2.931164   1.000000
   49       -2.917874   1.000000
   50       -2.773537   1.000000
   51       -2.736770   1.000000
   52       -2.351467   1.000000
   53       -2.349037   1.000000
   54       -2.119271   1.000000
   55       -2.111516   1.000000
   56       -1.841175   1.000000
   57       -1.837895   1.000000
   58       -1.683620   1.000000
   59       -1.656651   1.000000
   60       -1.580242   1.000000
   61       -1.562623   1.000001
   62       -1.503205   1.000006
   63       -1.275480   1.002453
   64       -1.151522   1.018374
   65       -1.115038   1.026680
   66       -1.104073   1.029106
   67       -1.032207   1.032984
   68       -1.019091   1.028942
   69       -0.998484   1.017555
   70       -0.903867   0.850694
   71       -0.807867   0.487915
   72       -0.789647   0.411368
   73       -0.752281   0.264027
   74       -0.735605   0.205640
   75       -0.702095   0.107135
   76       -0.693807   0.087026
   77       -0.670401   0.039566
   78       -0.529622  -0.031569
   79       -0.513333  -0.028229
   80       -0.490277  -0.022963
   81       -0.339408  -0.002145
   82       -0.200559  -0.000070
   83       -0.101609  -0.000003
   84       -0.018297  -0.000000
   85        0.034350  -0.000000
   86        0.088726  -0.000000
   87        0.374957  -0.000000
   88        0.414978  -0.000000
   89        1.200336  -0.000000
   90        1.492298  -0.000000
   91        1.619145  -0.000000
   92        1.642625  -0.000000
   93        1.770335  -0.000000
   94        1.775240  -0.000000
   95        2.586209  -0.000000
   96        2.587867  -0.000000
 
  0.1875000E+00  0.6250000E-01  0.0000000E+00  0.2083333E-01
    1       -9.983167   1.000000
    2       -8.714916   1.000000
    3       -7.654185   1.000000
    4       -7.531005   1.000000
    5       -7.439885   1.000000
    6       -7.362191   1.000000
    7       -7.243857   1.000000
    8       -7.225606   1.000000
    9       -7.176314   1.000000
   10       -7.108666   1.000000
   11       -6.751344   1.000000
   12       -6.727424   1.000000
   13       -6.718272   1.000000
   14       -6.716604   1.000000
   15       -6.651767   1.000000
   16       -6.476626   1.000000
   17       -6.426325   1.000000
   18       -6.371633   1.000000
   19       -6.290465   1.000000
   20       -5.742749   1.000000
   21       -5.722950   1.000000
   22       -5.625501   1.000000
   23       -4.971096   1.000000
   24       -4.900013   1.000000
   25       -4.849281   1.000000
   26       -4.716925   1.000000
   27       -4.669712   1.000000
   28       -4.586587   1.000000
   29       -4.578882   1.000000
   30       -4.546186   1.000000
   31       -4.472579   1.000000
   32       -4.203291   1.000000
   33       -4.173068   1.000000
   34       -4.148987   1.000000
   35       -4.103776   1.000000
   36       -4.040556   1.000000
   37       -4.017804   1.000000
   38       -3.979864   1.000000
   39       -3.916958   1.000000
   40       -3.873012   1.000000
   41       -3.776804   1.000000
   42       -3.647731   1.000000
   43       -3.626882   1.000000
   44       -3.541925   1.000000
   45       -3.509253   1.000000
   46       -3.471574   1.000000
   47       -3.302407   1.000000
   48       -3.108201   1.000000
   49       -2.979846   1.000000
   50       -2.828900   1.000000
   51       -2.668102   1.000000
   52       -2.480489   1.000000
   53       -2.426019   1.000000
   54       -2.336253   1.000000
   55       -2.132164   1.000000
   56       -2.037600   1.000000
   57       -1.979395   1.000000
   58       -1.933355   1.000000
   59       -1.846352   1.000000
   60       -1.798245   1.000000
   61       -1.714630   1.000000
   62       -1.702232   1.000000
   63       -1.643261   1.000000
   64       -1.551639   1.000001
   65       -1.534441   1.000002
   66       -1.435414   1.000046
   67       -1.286076   1.001973
   68       -1.220550   1.006799
   69       -1.155693   1.017478
   70       -1.093930   1.031171
   71       -1.050803   1.035363
   72       -0.987577   1.008578
   73       -0.960889   0.976377
   74       -0.922125   0.899789
   75       -0.851977   0.670512
   76       -0.842854   0.634032
   77       -0.824105   0.556483
   78       -0.776985   0.359471
   79       -0.695638   0.091319
   80       -0.647336   0.005746
   81       -0.585926  -0.033671
   82       -0.465721  -0.017471
   83       -0.358373  -0.003140
   84       -0.291185  -0.000740
   85       -0.187223  -0.000048
   86        0.183941  -0.000000
   87        0.263164  -0.000000
   88        0.814838  -0.000000
   89        0.847692  -0.000000
   90        1.098057  -0.000000
   91        1.284383  -0.000000
   92        1.622616  -0.000000
   93        2.140877  -0.000000
   94        2.523445  -0.000000
   95        3.013000  -0.000000
   96        3.368130  -0.000000
 
  0.1250000E+00  0.1875000E+00  0.0000000E+00  0.2083333E-01
    1       -9.983154   1.000000
    2       -8.714916   1.000000
    3       -7.654175   1.000000
    4       -7.530989   1.000000
    5       -7.439998   1.000000
    6       -7.361826   1.000000
    7       -7.244005   1.000000
    8       -7.225173   1.000000
    9       -7.176404   1.000000
   10       -7.108926   1.000000
   11       -6.751537   1.000000
   12       -6.727628   1.000000
   13       -6.722623   1.000000
   14       -6.710698   1.000000
   15       -6.653204   1.000000
   16       -6.481596   1.000000
   17       -6.418511   1.000000
   18       -6.372747   1.000000
   19       -6.292277   1.000000
   20       -5.740455   1.000000
   21       -5.724124   1.000000
   22       -5.626741   1.000000
   23       -4.967487   1.000000
   24       -4.903651   1.000000
   25       -4.848241   1.000000
   26       -4.719925   1.000000
   27       -4.669480   1.000000
   28       -4.591432   1.000000
   29       -4.576291   1.000000
   30       -4.540537   1.000000
   31       -4.474895   1.000000
   32       -4.207251   1.000000
   33       -4.172168   1.000000
   34       -4.140519   1.000000
   35       -4.110066   1.000000
   36       -4.035668   1.000000
   37       -4.005262   1.000000
   38       -3.984476   1.000000
   39       -3.925351   1.000000
   40       -3.873328   1.000000
   41       -3.781885   1.000000
   42       -3.644863   1.000000
   43       -3.618684   1.000000
   44       -3.545159   1.000000
   45       -3.518040   1.000000
   46       -3.475183   1.000000
   47       -3.284624   1.000000
   48       -3.145009   1.000000
   49       -2.948500   1.000000
   50       -2.825761   1.000000
   51       -2.680758   1.000000
   52       -2.471880   1.000000
   53       -2.437678   1.000000
   54       -2.306036   1.000000
   55       -2.152386   1.000000
   56       -2.020091   1.000000
   57       -2.000310   1.000000
   58       -1.891865   1.000000
   59       -1.872470   1.000000
   60       -1.808845   1.000000
   61       -1.755041   1.000000
   62       -1.691409   1.000000
   63       -1.637447   1.000000
   64       -1.560377   1.000001
   65       -1.516565   1.000004
   66       -1.445644   1.000034
   67       -1.273727   1.002542
   68       -1.198736   1.009656
   69       -1.153837   1.017874
   70       -1.070041   1.034738
   71       -1.051969   1.035404
   72       -1.022875   1.030338
   73       -0.958582   0.972848
   74       -0.948371   0.955701
   75       -0.856858   0.689572
   76       -0.833838   0.597089
   77       -0.797472   0.444066
   78       -0.761657   0.299151
   79       -0.738227   0.214443
   80       -0.635666  -0.006881
   81       -0.560456  -0.035353
   82       -0.478001  -0.020159
   83       -0.364589  -0.003540
   84       -0.299802  -0.000904
   85       -0.177971  -0.000036
   86        0.181921  -0.000000
   87        0.262378  -0.000000
   88        0.818388  -0.000000
   89        0.844373  -0.000000
   90        1.100177  -0.000000
   91        1.284624  -0.000000
   92        1.621800  -0.000000
   93        2.140981  -0.000000
   94        2.523321  -0.000000
   95        3.012967  -0.000000
   96        3.366918  -0.000000
 
 -0.6250000E-01  0.1250000E+00  0.0000000E+00  0.2083333E-01
    1       -9.983146   1.000000
    2       -8.714915   1.000000
    3       -7.654171   1.000000
    4       -7.531011   1.000000
    5       -7.439970   1.000000
    6       -7.361580   1.000000
    7       -7.243927   1.000000
    8       -7.224885   1.000000
    9       -7.176898   1.000000
   10       -7.108943   1.000000
   11       -6.751805   1.000000
   12       -6.730175   1.000000
   13       -6.718541   1.000000
   14       -6.712683   1.000000
   15       -6.651756   1.000000
   16       -6.484720   1.000000
   17       -6.420598   1.000000
   18       -6.364211   1.000000
   19       -6.296600   1.000000
   20       -5.734812   1.000000
   21       -5.728952   1.000000
   22       -5.627618   1.000000
   23       -4.961132   1.000000
   24       -4.909757   1.000000
   25       -4.847292   1.000000
   26       -4.728675   1.000000
   27       -4.665399   1.000000
   28       -4.588531   1.000000
   29       -4.576197   1.000000
   30       -4.538942   1.000000
   31       -4.475583   1.000000
   32       -4.208317   1.000000
   33       -4.172029   1.000000
   34       -4.143079   1.000000
   35       -4.106414   1.000000
   36       -4.030537   1.000000
   37       -4.010102   1.000000
   38       -3.977182   1.000000
   39       -3.928384   1.000000
   40       -3.876425   1.000000
   41       -3.783812   1.000000
   42       -3.654138   1.000000
   43       -3.604152   1.000000
   44       -3.552705   1.000000
   45       -3.518716   1.000000
   46       -3.466496   1.000000
   47       -3.304281   1.000000
   48       -3.130911   1.000000
   49       -2.956001   1.000000
   50       -2.807875   1.000000
   51       -2.693523   1.000000
   52       -2.474636   1.000000
   53       -2.434808   1.000000
   54       -2.283324   1.000000
   55       -2.166908   1.000000
   56       -2.019482   1.000000
   57       -1.998216   1.000000
   58       -1.917609   1.000000
   59       -1.847349   1.000000
   60       -1.813926   1.000000
   61       -1.767022   1.000000
   62       -1.704802   1.000000
   63       -1.611052   1.000000
   64       -1.579605   1.000000
   65       -1.513316   1.000004
   66       -1.435979   1.000045
   67       -1.274277   1.002514
   68       -1.209714   1.008126
   69       -1.140110   1.020912
   70       -1.080554   1.033456
   71       -1.033339   1.033232
   72       -1.017490   1.028292
   73       -0.965036   0.982410
   74       -0.941829   0.943380
   75       -0.877470   0.765750
   76       -0.831965   0.589323
   77       -0.805627   0.478444
   78       -0.758198   0.286018
   79       -0.726090   0.174971
   80       -0.643860   0.001687
   81       -0.542825  -0.033731
   82       -0.451987  -0.014676
   83       -0.405463  -0.007336
   84       -0.297859  -0.000865
   85       -0.184964  -0.000045
   86        0.185478  -0.000000
   87        0.271050  -0.000000
   88        0.811173  -0.000000
   89        0.846553  -0.000000
   90        1.099305  -0.000000
   91        1.286484  -0.000000
   92        1.621217  -0.000000
   93        2.142229  -0.000000
   94        2.522806  -0.000000
   95        3.012848  -0.000000
   96        3.366873  -0.000000
 
  0.3125000E+00  0.6250000E-01  0.0000000E+00  0.2083333E-01
    1       -9.529533   1.000000
    2       -8.278983   1.000000
    3       -7.538988   1.000000
    4       -7.229039   1.000000
    5       -7.122139   1.000000
    6       -7.109291   1.000000
    7       -7.100706   1.000000
    8       -6.906356   1.000000
    9       -6.874884   1.000000
   10       -6.799085   1.000000
   11       -6.670418   1.000000
   12       -6.509993   1.000000
   13       -6.490542   1.000000
   14       -6.451632   1.000000
   15       -6.339769   1.000000
   16       -6.284969   1.000000
   17       -6.124854   1.000000
   18       -6.037320   1.000000
   19       -5.916198   1.000000
   20       -5.616218   1.000000
   21       -5.573178   1.000000
   22       -5.509736   1.000000
   23       -5.102694   1.000000
   24       -5.047035   1.000000
   25       -4.945987   1.000000
   26       -4.845525   1.000000
   27       -4.799129   1.000000
   28       -4.720512   1.000000
   29       -4.524545   1.000000
   30       -4.481519   1.000000
   31       -4.431551   1.000000
   32       -4.284654   1.000000
   33       -4.268223   1.000000
   34       -4.244791   1.000000
   35       -4.132422   1.000000
   36       -4.079512   1.000000
   37       -4.002459   1.000000
   38       -3.938648   1.000000
   39       -3.904680   1.000000
   40       -3.863521   1.000000
   41       -3.823415   1.000000
   42       -3.816875   1.000000
   43       -3.788072   1.000000
   44       -3.775296   1.000000
   45       -3.632543   1.000000
   46       -3.530768   1.000000
   47       -3.456661   1.000000
   48       -3.226701   1.000000
   49       -3.076799   1.000000
   50       -3.000492   1.000000
   51       -2.889336   1.000000
   52       -2.782774   1.000000
   53       -2.735081   1.000000
   54       -2.679015   1.000000
   55       -2.599614   1.000000
   56       -2.588254   1.000000
   57       -2.531050   1.000000
   58       -2.476752   1.000000
   59       -2.390823   1.000000
   60       -2.324754   1.000000
   61       -2.184699   1.000000
   62       -2.102056   1.000000
   63       -2.059777   1.000000
   64       -1.895457   1.000000
   65       -1.852397   1.000000
   66       -1.818350   1.000000
   67       -1.715520   1.000000
   68       -1.599505   1.000000
   69       -1.546572   1.000001
   70       -1.524010   1.000003
   71       -1.459956   1.000022
   72       -1.388017   1.000174
   73       -1.277025   1.002378
   74       -1.265414   1.002999
   75       -1.198249   1.009728
   76       -1.114627   1.026773
   77       -1.018372   1.028654
   78       -0.981052   1.002106
   79       -0.915709   0.883483
   80       -0.811677   0.504035
   81       -0.753640   0.269026
   82       -0.731444   0.191979
   83       -0.655238   0.015956
   84       -0.545745  -0.034114
   85       -0.454638  -0.015195
   86        0.309841  -0.000000
   87        0.371371  -0.000000
   88        0.542285  -0.000000
   89        0.938500  -0.000000
   90        1.694185  -0.000000
   91        1.909784  -0.000000
   92        1.931288  -0.000000
   93        2.287244  -0.000000
   94        2.663692  -0.000000
   95        3.235844  -0.000000
   96        3.913494  -0.000000
 
  0.2500000E+00  0.3125000E+00  0.0000000E+00  0.2083333E-01
    1       -9.529511   1.000000
    2       -8.278985   1.000000
    3       -7.538970   1.000000
    4       -7.228991   1.000000
    5       -7.121847   1.000000
    6       -7.109800   1.000000
    7       -7.100340   1.000000
    8       -6.906054   1.000000
    9       -6.874906   1.000000
   10       -6.798933   1.000000
   11       -6.670252   1.000000
   12       -6.508926   1.000000
   13       -6.493371   1.000000
   14       -6.450079   1.000000
   15       -6.345187   1.000000
   16       -6.279214   1.000000
   17       -6.124820   1.000000
   18       -6.038720   1.000000
   19       -5.915729   1.000000
   20       -5.616506   1.000000
   21       -5.572855   1.000000
   22       -5.510183   1.000000
   23       -5.104442   1.000000
   24       -5.044361   1.000000
   25       -4.946702   1.000000
   26       -4.846143   1.000000
   27       -4.797813   1.000000
   28       -4.720363   1.000000
   29       -4.526288   1.000000
   30       -4.486164   1.000000
   31       -4.427116   1.000000
   32       -4.289659   1.000000
   33       -4.264657   1.000000
   34       -4.237339   1.000000
   35       -4.134765   1.000000
   36       -4.078965   1.000000
   37       -4.007644   1.000000
   38       -3.926764   1.000000
   39       -3.901795   1.000000
   40       -3.873749   1.000000
   41       -3.832555   1.000000
   42       -3.807514   1.000000
   43       -3.786694   1.000000
   44       -3.777081   1.000000
   45       -3.635889   1.000000
   46       -3.535617   1.000000
   47       -3.457293   1.000000
   48       -3.225336   1.000000
   49       -3.066889   1.000000
   50       -2.998486   1.000000
   51       -2.891624   1.000000
   52       -2.794658   1.000000
   53       -2.720440   1.000000
   54       -2.689512   1.000000
   55       -2.601173   1.000000
   56       -2.582294   1.000000
   57       -2.519110   1.000000
   58       -2.475052   1.000000
   59       -2.378537   1.000000
   60       -2.344905   1.000000
   61       -2.196673   1.000000
   62       -2.121723   1.000000
   63       -2.023854   1.000000
   64       -1.911892   1.000000
   65       -1.867163   1.000000
   66       -1.820333   1.000000
   67       -1.685357   1.000000
   68       -1.612050   1.000000
   69       -1.558413   1.000001
   70       -1.510550   1.000004
   71       -1.475143   1.000014
   72       -1.356543   1.000392
   73       -1.273015   1.002578
   74       -1.263078   1.003139
   75       -1.210408   1.008035
   76       -1.122567   1.024953
   77       -1.027484   1.031781
   78       -0.979034   0.999928
   79       -0.915977   0.884184
   80       -0.809862   0.496357
   81       -0.758749   0.288098
   82       -0.724340   0.169554
   83       -0.639998  -0.002522
   84       -0.555097  -0.035050
   85       -0.456780  -0.015622
   86        0.309776  -0.000000
   87        0.370408  -0.000000
   88        0.543348  -0.000000
   89        0.939535  -0.000000
   90        1.694225  -0.000000
   91        1.899427  -0.000000
   92        1.940525  -0.000000
   93        2.286862  -0.000000
   94        2.665122  -0.000000
   95        3.234685  -0.000000
   96        3.913466  -0.000000
 
 -0.6250000E-01  0.2500000E+00  0.0000000E+00  0.2083333E-01
    1       -9.529461   1.000000
    2       -8.278971   1.000000
    3       -7.538905   1.000000
    4       -7.228820   1.000000
    5       -7.119874   1.000000
    6       -7.110701   1.000000
    7       -7.100307   1.000000
    8       -6.904874   1.000000
    9       -6.876695   1.000000
   10       -6.799382   1.000000
   11       -6.670453   1.000000
   12       -6.508809   1.000000
   13       -6.492363   1.000000
   14       -6.451788   1.000000
   15       -6.343140   1.000000
   16       -6.282617   1.000000
   17       -6.127799   1.000000
   18       -6.024772   1.000000
   19       -5.927044   1.000000
   20       -5.601286   1.000000
   21       -5.581146   1.000000
   22       -5.516774   1.000000
   23       -5.097029   1.000000
   24       -5.045218   1.000000
   25       -4.951062   1.000000
   26       -4.853398   1.000000
   27       -4.791599   1.000000
   28       -4.725057   1.000000
   29       -4.530483   1.000000
   30       -4.479925   1.000000
   31       -4.423938   1.000000
   32       -4.290862   1.000000
   33       -4.258296   1.000000
   34       -4.226693   1.000000
   35       -4.140665   1.000000
   36       -4.078688   1.000000
   37       -4.017286   1.000000
   38       -3.932101   1.000000
   39       -3.889130   1.000000
   40       -3.867150   1.000000
   41       -3.831451   1.000000
   42       -3.817986   1.000000
   43       -3.791609   1.000000
   44       -3.770799   1.000000
   45       -3.660112   1.000000
   46       -3.541319   1.000000
   47       -3.437384   1.000000
   48       -3.228566   1.000000
   49       -3.053793   1.000000
   50       -3.004028   1.000000
   51       -2.874080   1.000000
   52       -2.801276   1.000000
   53       -2.733014   1.000000
   54       -2.681711   1.000000
   55       -2.602259   1.000000
   56       -2.583091   1.000000
   57       -2.512024   1.000000
   58       -2.464783   1.000000
   59       -2.408391   1.000000
   60       -2.323955   1.000000
   61       -2.223933   1.000000
   62       -2.145124   1.000000
   63       -1.956696   1.000000
   64       -1.929343   1.000000
   65       -1.892047   1.000000
   66       -1.800023   1.000000
   67       -1.675626   1.000000
   68       -1.604033   1.000000
   69       -1.583997   1.000000
   70       -1.521717   1.000003
   71       -1.473226   1.000015
   72       -1.394097   1.000148
   73       -1.280282   1.002224
   74       -1.230826   1.005701
   75       -1.151849   1.018303
   76       -1.109900   1.027834
   77       -1.073371   1.034391
   78       -0.986206   1.007289
   79       -0.893887   0.820430
   80       -0.831737   0.588378
   81       -0.789500   0.410755
   82       -0.719903   0.156144
   83       -0.620177  -0.019501
   84       -0.503527  -0.026023
   85       -0.497544  -0.024644
   86        0.309327  -0.000000
   87        0.369867  -0.000000
   88        0.545396  -0.000000
   89        0.936690  -0.000000
   90        1.711901  -0.000000
   91        1.893620  -0.000000
   92        1.913435  -0.000000
   93        2.304901  -0.000000
   94        2.665182  -0.000000
   95        3.232716  -0.000000
   96        3.913280  -0.000000
 
  0.4375000E+00  0.6250000E-01  0.0000000E+00  0.2083333E-01
    1       -8.890446   1.000000
    2       -7.905609   1.000000
    3       -7.716570   1.000000
    4       -7.141430   1.000000
    5       -6.784713   1.000000
    6       -6.772926   1.000000
    7       -6.610117   1.000000
    8       -6.570096   1.000000
    9       -6.542342   1.000000
   10       -6.529748   1.000000
   11       -6.482249   1.000000
   12       -6.236773   1.000000
   13       -6.180927   1.000000
   14       -6.074091   1.000000
   15       -6.053327   1.000000
   16       -5.985799   1.000000
   17       -5.836945   1.000000
   18       -5.691539   1.000000
   19       -5.536851   1.000000
   20       -5.436528   1.000000
   21       -5.389851   1.000000
   22       -5.349365   1.000000
   23       -5.285503   1.000000
   24       -5.202616   1.000000
   25       -5.053735   1.000000
   26       -5.023620   1.000000
   27       -4.971739   1.000000
   28       -4.768784   1.000000
   29       -4.727009   1.000000
   30       -4.670220   1.000000
   31       -4.640872   1.000000
   32       -4.509365   1.000000
   33       -4.462035   1.000000
   34       -4.409871   1.000000
   35       -4.354259   1.000000
   36       -4.225042   1.000000
   37       -4.130652   1.000000
   38       -4.093281   1.000000
   39       -3.979949   1.000000
   40       -3.901760   1.000000
   41       -3.813170   1.000000
   42       -3.750368   1.000000
   43       -3.711087   1.000000
   44       -3.668194   1.000000
   45       -3.639599   1.000000
   46       -3.608515   1.000000
   47       -3.547831   1.000000
   48       -3.485874   1.000000
   49       -3.371076   1.000000
   50       -3.334795   1.000000
   51       -3.288769   1.000000
   52       -3.219396   1.000000
   53       -3.181343   1.000000
   54       -3.020841   1.000000
   55       -3.005975   1.000000
   56       -2.914235   1.000000
   57       -2.855117   1.000000
   58       -2.770876   1.000000
   59       -2.743012   1.000000
   60       -2.546085   1.000000
   61       -2.477404   1.000000
   62       -2.389798   1.000000
   63       -2.336302   1.000000
   64       -2.248238   1.000000
   65       -2.211970   1.000000
   66       -2.154652   1.000000
   67       -2.084453   1.000000
   68       -2.003612   1.000000
   69       -1.934747   1.000000
   70       -1.881169   1.000000
   71       -1.844207   1.000000
   72       -1.761751   1.000000
   73       -1.642196   1.000000
   74       -1.435576   1.000046
   75       -1.393564   1.000150
   76       -1.304739   1.001322
   77       -1.209471   1.008157
   78       -1.053489   1.035439
   79       -0.910575   0.869692
   80       -0.876726   0.763135
   81       -0.802725   0.466186
   82       -0.722684   0.164496
   83       -0.673156   0.044446
   84       -0.576183  -0.035010
   85       -0.474328  -0.019339
   86       -0.209412  -0.000090
   87        0.685296  -0.000000
   88        1.021007  -0.000000
   89        1.069349  -0.000000
   90        1.775805  -0.000000
   91        1.968105  -0.000000
   92        2.114118  -0.000000
   93        2.444001  -0.000000
   94        3.031160  -0.000000
   95        3.583850  -0.000000
   96        4.002707  -0.000000
 
  0.3750000E+00  0.4375000E+00  0.0000000E+00  0.2083333E-01
    1       -8.890419   1.000000
    2       -7.905618   1.000000
    3       -7.716581   1.000000
    4       -7.141381   1.000000
    5       -6.786756   1.000000
    6       -6.770512   1.000000
    7       -6.610165   1.000000
    8       -6.570523   1.000000
    9       -6.540362   1.000000
   10       -6.530981   1.000000
   11       -6.482684   1.000000
   12       -6.237207   1.000000
   13       -6.180791   1.000000
   14       -6.071621   1.000000
   15       -6.055176   1.000000
   16       -5.985996   1.000000
   17       -5.837583   1.000000
   18       -5.691369   1.000000
   19       -5.537756   1.000000
   20       -5.434241   1.000000