       N       E                     dE             d eps       ncg     rms          rms(c)
DAV:   1     0.977855932056E+03    0.97786E+03   -0.55476E+04  9984   0.101E+03
DAV:   2    -0.391605430096E+02   -0.10170E+04   -0.98608E+03 14616   0.248E+02
DAV:   3    -0.970187533546E+02   -0.57858E+02   -0.56049E+02 12456   0.595E+01
DAV:   4    -0.982306980625E+02   -0.12119E+01   -0.12066E+01 14184   0.991E+00
DAV:   5    -0.982634062124E+02   -0.32708E-01   -0.32694E-01 15096   0.127E+00    0.417E+01
DAV:   6    -0.943462125041E+02    0.39172E+01   -0.29620E+01 11808   0.194E+01    0.303E+01
DAV:   7    -0.123823820884E+03   -0.29478E+02   -0.22940E+02 14760   0.601E+01    0.492E+01
DAV:   8    -0.101264235642E+03    0.22560E+02   -0.85736E+01 15240   0.380E+01    0.261E+01
DAV:   9    -0.103013977044E+03   -0.17497E+01   -0.92205E+01 13536   0.399E+01    0.281E+01
DAV:  10    -0.101238000722E+03    0.17760E+01   -0.80862E+01 16128   0.446E+01    0.250E+01
DAV:  11    -0.929792013051E+02    0.82588E+01   -0.28574E+01 13920   0.161E+01    0.988E+00
DAV:  12    -0.930803517528E+02   -0.10115E+00   -0.81275E+00 15000   0.109E+01    0.111E+01
DAV:  13    -0.921395011918E+02    0.94085E+00   -0.72720E+00 14280   0.707E+00    0.473E+00
DAV:  14    -0.920617085307E+02    0.77793E-01   -0.11470E+00 11904   0.392E+00    0.351E+00
DAV:  15    -0.920609391561E+02    0.76937E-03   -0.60697E-02 12840   0.895E-01    0.323E+00
DAV:  16    -0.920528470445E+02    0.80921E-02   -0.72219E-02 14616   0.895E-01    0.274E+00
DAV:  17    -0.920162870097E+02    0.36560E-01   -0.27833E-01 12240   0.162E+00    0.901E-01
DAV:  18    -0.920177599691E+02   -0.14730E-02   -0.42254E-02 12504   0.711E-01    0.999E-01
DAV:  19    -0.920151295608E+02    0.26304E-02   -0.40298E-03 11712   0.232E-01    0.818E-01
DAV:  20    -0.920126440659E+02    0.24855E-02   -0.55860E-03 13728   0.221E-01    0.547E-01
DAV:  21    -0.920113733426E+02    0.12707E-02   -0.42923E-03 12792   0.223E-01    0.372E-01
DAV:  22    -0.920113394536E+02    0.33889E-04   -0.22115E-03 12768   0.164E-01    0.398E-01
DAV:  23    -0.920103976419E+02    0.94181E-03   -0.16279E-03 15216   0.122E-01    0.226E-01
DAV:  24    -0.920100918962E+02    0.30575E-03   -0.50430E-04 15384   0.707E-02    0.145E-01
DAV:  25    -0.920098958857E+02    0.19601E-03   -0.49896E-04 14016   0.731E-02    0.828E-02
DAV:  26    -0.920098712171E+02    0.24669E-04   -0.25354E-04 10824   0.561E-02    0.528E-02
DAV:  27    -0.920098788010E+02   -0.75840E-05   -0.25129E-05  7440   0.182E-02
   1 F= -.92009821E+02 E0= -.91996416E+02  d E =-.402124E-01
