<?xml version="1.0" encoding="ISO-8859-1"?>
<modeling>
 <generator>
  <i name="program" type="string">vasp </i>
  <i name="version" type="string">5.4.4.18Apr17-6-g9f103f2a35  </i>
  <i name="subversion" type="string">(build Apr 28 2017 10:53:45) complex            parallel </i>
  <i name="platform" type="string">LinuxIFC </i>
  <i name="date" type="string">2020 02 17 </i>
  <i name="time" type="string">09:19:46 </i>
 </generator>
 <incar>
  <i type="string" name="PREC">normal</i>
  <i type="int" name="ISPIN">     1</i>
  <i type="int" name="IBRION">     2</i>
  <i name="EDIFF">      0.00001000</i>
  <i name="EDIFFG">     -0.05000000</i>
  <i type="int" name="NSW">     0</i>
  <i name="ENCUT">    350.00000000</i>
  <i type="logical" name="LWAVE"> F  </i>
  <i type="logical" name="LCHARG"> F  </i>
  <v type="int" name="KPOINT_BSE">    -1     0     0     0</v>
  <i type="string" name="GGA"> PE</i>
  <i type="int" name="IDIPOL">     3</i>
 </incar>
 <structure name="primitive_cell" >
  <crystal>
   <varray name="basis" >
    <v>       5.55785930       0.00000000       0.00000000 </v>
    <v>       2.77892965       4.81324734       0.00000000 </v>
    <v>       0.00000000       0.00000000      30.80695967 </v>
   </varray>
   <i name="volume">    824.12780743 </i>
   <varray name="rec_basis" >
    <v>       0.17992539      -0.10387997       0.00000000 </v>
    <v>       0.00000000       0.20775994       0.00000000 </v>
    <v>       0.00000000       0.00000000       0.03246020 </v>
   </varray>
  </crystal>
  <varray name="positions" >
   <v>       0.00000000       0.00000000       0.38952237 </v>
   <v>       0.00000000      -0.50000000       0.38952237 </v>
   <v>      -0.50000000      -0.50000000       0.38952237 </v>
   <v>      -0.50000000       0.00000000       0.38952237 </v>
   <v>       0.16666667       0.16666667       0.46468540 </v>
   <v>       0.16666667      -0.33333333       0.46468540 </v>
   <v>      -0.33333333       0.16666667       0.46468540 </v>
   <v>      -0.33333333      -0.33333333       0.46468540 </v>
   <v>      -0.16666667      -0.16666667      -0.46079704 </v>
   <v>      -0.16666667       0.33333333      -0.46079704 </v>
   <v>       0.33333333      -0.16666667      -0.46079704 </v>
   <v>       0.33333333       0.33333333      -0.46079704 </v>
   <v>       0.00000000       0.00000000      -0.38513957 </v>
   <v>       0.00000000      -0.50000000      -0.38513957 </v>
   <v>      -0.50000000      -0.50000000      -0.38513957 </v>
   <v>      -0.50000000       0.00000000      -0.38513957 </v>
  </varray>
 </structure>
 <varray name="primitive_index" >
  <v type="int" >        1 </v>
  <v type="int" >        3 </v>
  <v type="int" >        4 </v>
  <v type="int" >        2 </v>
  <v type="int" >        5 </v>
  <v type="int" >        7 </v>
  <v type="int" >        6 </v>
  <v type="int" >        8 </v>
  <v type="int" >       11 </v>
  <v type="int" >        9 </v>
  <v type="int" >       12 </v>
  <v type="int" >       10 </v>
  <v type="int" >       13 </v>
  <v type="int" >       14 </v>
  <v type="int" >       15 </v>
  <v type="int" >       16 </v>
 </varray>
 <kpoints>
  <generation param="Monkhorst-Pack">
   <v type="int" name="divisions">       8        8        1 </v>
   <v name="usershift">      0.00000000       0.00000000       0.00000000 </v>
   <v name="genvec1">      0.12500000       0.00000000       0.00000000 </v>
   <v name="genvec2">      0.00000000       0.12500000       0.00000000 </v>
   <v name="genvec3">      0.00000000       0.00000000       1.00000000 </v>
   <v name="shift">      0.50000000       0.50000000       0.00000000 </v>
  </generation>
  <varray name="kpointlist" >
   <v>       0.06250000       0.06250000       0.00000000 </v>
   <v>       0.00000000       0.06250000       0.00000000 </v>
   <v>       0.18750000       0.06250000       0.00000000 </v>
   <v>       0.12500000       0.18750000       0.00000000 </v>
   <v>      -0.06250000       0.12500000       0.00000000 </v>
   <v>       0.31250000       0.06250000       0.00000000 </v>
   <v>       0.25000000       0.31250000       0.00000000 </v>
   <v>      -0.06250000       0.25000000       0.00000000 </v>
   <v>       0.43750000       0.06250000       0.00000000 </v>
   <v>       0.37500000       0.43750000       0.00000000 </v>
   <v>      -0.06250000       0.37500000       0.00000000 </v>
   <v>      -0.43750000       0.06250000       0.00000000 </v>
   <v>       0.50000000      -0.43750000       0.00000000 </v>
   <v>      -0.06250000       0.50000000       0.00000000 </v>
   <v>      -0.31250000       0.06250000       0.00000000 </v>
   <v>      -0.37500000      -0.31250000       0.00000000 </v>
   <v>      -0.06250000      -0.37500000       0.00000000 </v>
   <v>      -0.18750000       0.06250000       0.00000000 </v>
   <v>      -0.25000000      -0.18750000       0.00000000 </v>
   <v>      -0.06250000      -0.25000000       0.00000000 </v>
   <v>      -0.06250000       0.06250000       0.00000000 </v>
   <v>      -0.12500000      -0.06250000       0.00000000 </v>
   <v>       0.18750000       0.18750000       0.00000000 </v>
   <v>       0.00000000       0.18750000       0.00000000 </v>
   <v>       0.31250000       0.18750000       0.00000000 </v>
   <v>       0.12500000       0.31250000       0.00000000 </v>
   <v>      -0.18750000       0.12500000       0.00000000 </v>
   <v>       0.43750000       0.18750000       0.00000000 </v>
   <v>       0.25000000       0.43750000       0.00000000 </v>
   <v>      -0.18750000       0.25000000       0.00000000 </v>
   <v>      -0.43750000       0.18750000       0.00000000 </v>
   <v>       0.37500000      -0.43750000       0.00000000 </v>
   <v>      -0.18750000       0.37500000       0.00000000 </v>
   <v>      -0.31250000       0.18750000       0.00000000 </v>
   <v>       0.50000000      -0.31250000       0.00000000 </v>
   <v>      -0.18750000       0.50000000       0.00000000 </v>
   <v>      -0.18750000       0.18750000       0.00000000 </v>
   <v>      -0.37500000      -0.18750000       0.00000000 </v>
   <v>       0.31250000       0.31250000       0.00000000 </v>
   <v>       0.00000000       0.31250000       0.00000000 </v>
   <v>       0.43750000       0.31250000       0.00000000 </v>
   <v>       0.12500000       0.43750000       0.00000000 </v>
   <v>      -0.31250000       0.12500000       0.00000000 </v>
   <v>      -0.43750000       0.31250000       0.00000000 </v>
   <v>       0.25000000      -0.43750000       0.00000000 </v>
   <v>      -0.31250000       0.25000000       0.00000000 </v>
   <v>      -0.31250000       0.31250000       0.00000000 </v>
   <v>       0.37500000      -0.31250000       0.00000000 </v>
   <v>       0.43750000       0.43750000       0.00000000 </v>
   <v>       0.00000000       0.43750000       0.00000000 </v>
   <v>      -0.43750000       0.43750000       0.00000000 </v>
   <v>       0.12500000      -0.43750000       0.00000000 </v>
  </varray>
  <varray name="weights" >
   <v>       0.02083333 </v>
   <v>       0.01041667 </v>
   <v>       0.02083333 </v>
   <v>       0.02083333 </v>
   <v>       0.02083333 </v>
   <v>       0.02083333 </v>
   <v>       0.02083333 </v>
   <v>       0.02083333 </v>
   <v>       0.02083333 </v>
   <v>       0.02083333 </v>
   <v>       0.02083333 </v>
   <v>       0.02083333 </v>
   <v>       0.02083333 </v>
   <v>       0.02083333 </v>
   <v>       0.02083333 </v>
   <v>       0.02083333 </v>
   <v>       0.02083333 </v>
   <v>       0.02083333 </v>
   <v>       0.02083333 </v>
   <v>       0.02083333 </v>
   <v>       0.02083333 </v>
   <v>       0.01041667 </v>
   <v>       0.02083333 </v>
   <v>       0.01041667 </v>
   <v>       0.02083333 </v>
   <v>       0.02083333 </v>
   <v>       0.02083333 </v>
   <v>       0.02083333 </v>
   <v>       0.02083333 </v>
   <v>       0.02083333 </v>
   <v>       0.02083333 </v>
   <v>       0.02083333 </v>
   <v>       0.02083333 </v>
   <v>       0.02083333 </v>
   <v>       0.02083333 </v>
   <v>       0.02083333 </v>
   <v>       0.02083333 </v>
   <v>       0.01041667 </v>
   <v>       0.02083333 </v>
   <v>       0.01041667 </v>
   <v>       0.02083333 </v>
   <v>       0.02083333 </v>
   <v>       0.02083333 </v>
   <v>       0.02083333 </v>
   <v>       0.02083333 </v>
   <v>       0.02083333 </v>
   <v>       0.02083333 </v>
   <v>       0.01041667 </v>
   <v>       0.02083333 </v>
   <v>       0.01041667 </v>
   <v>       0.02083333 </v>
   <v>       0.01041667 </v>
  </varray>
 </kpoints>
 <parameters>
  <separator name="general" >
   <i type="string" name="SYSTEM">unknown system</i>
   <i type="logical" name="LCOMPAT"> F  </i>
  </separator>
  <separator name="electronic" >
   <i type="string" name="PREC">normal</i>
   <i name="ENMAX">    350.00000000</i>
   <i name="ENAUG">    358.96600000</i>
   <i name="EDIFF">      0.00001000</i>
   <i type="int" name="IALGO">    38</i>
   <i type="int" name="IWAVPR">    10</i>
   <i type="int" name="NBANDS">    96</i>
   <i name="NELECT">    160.00000000</i>
   <i type="int" name="TURBO">     0</i>
   <i type="int" name="IRESTART">     0</i>
   <i type="int" name="NREBOOT">     0</i>
   <i type="int" name="NMIN">     0</i>
   <i name="EREF">      0.00000000</i>
   <separator name="electronic smearing" >
    <i type="int" name="ISMEAR">     1</i>
    <i name="SIGMA">      0.20000000</i>
    <i name="KSPACING">      0.50000000</i>
    <i type="logical" name="KGAMMA"> T  </i>
   </separator>
   <separator name="electronic projectors" >
    <i type="logical" name="LREAL"> F  </i>
    <v name="ROPT">      0.00000000      0.00000000      0.00000000</v>
    <i type="int" name="LMAXPAW">  -100</i>
    <i type="int" name="LMAXMIX">     2</i>
    <i type="logical" name="NLSPLINE"> F  </i>
   </separator>
   <separator name="electronic startup" >
    <i type="int" name="ISTART">     0</i>
    <i type="int" name="ICHARG">     2</i>
    <i type="int" name="INIWAV">     1</i>
   </separator>
   <separator name="electronic spin" >
    <i type="int" name="ISPIN">     1</i>
    <i type="logical" name="LNONCOLLINEAR"> F  </i>
    <v name="MAGMOM">      1.00000000      1.00000000      1.00000000      1.00000000      1.00000000      1.00000000      1.00000000      1.00000000      1.00000000      1.00000000      1.00000000      1.00000000      1.00000000      1.00000000      1.00000000      1.00000000</v>
    <i name="NUPDOWN">     -1.00000000</i>
    <i type="logical" name="LSORBIT"> F  </i>
    <v name="SAXIS">      0.00000000      0.00000000      1.00000000</v>
    <i type="logical" name="LSPIRAL"> F  </i>
    <v name="QSPIRAL">      0.00000000      0.00000000      0.00000000</v>
    <i type="logical" name="LZEROZ"> F  </i>
   </separator>
   <separator name="electronic exchange-correlation" >
    <i type="logical" name="LASPH"> F  </i>
    <i type="logical" name="LMETAGGA"> F  </i>
   </separator>
   <separator name="electronic convergence" >
    <i type="int" name="NELM">    60</i>
    <i type="int" name="NELMDL">    -5</i>
    <i type="int" name="NELMIN">     2</i>
    <i name="ENINI">    350.00000000</i>
    <separator name="electronic convergence detail" >
     <i type="logical" name="LDIAG"> T  </i>
     <i type="logical" name="LSUBROT"> F  </i>
     <i name="WEIMIN">      0.00000000</i>
     <i name="EBREAK">      0.00000003</i>
     <i name="DEPER">      0.30000000</i>
     <i type="int" name="NRMM">     4</i>
     <i name="TIME">      0.40000000</i>
    </separator>
   </separator>
   <separator name="electronic mixer" >
    <i name="AMIX">      0.40000000</i>
    <i name="BMIX">      1.00000000</i>
    <i name="AMIN">      0.10000000</i>
    <i name="AMIX_MAG">      1.60000000</i>
    <i name="BMIX_MAG">      1.00000000</i>
    <separator name="electronic mixer details" >
     <i type="int" name="IMIX">     4</i>
     <i type="logical" name="MIXFIRST"> F  </i>
     <i type="int" name="MAXMIX">   -45</i>
     <i name="WC">    100.00000000</i>
     <i type="int" name="INIMIX">     1</i>
     <i type="int" name="MIXPRE">     1</i>
     <i type="int" name="MREMOVE">     5</i>
    </separator>
   </separator>
   <separator name="electronic dipolcorrection" >
    <i type="logical" name="LDIPOL"> F  </i>
    <i type="logical" name="LMONO"> F  </i>
    <i type="int" name="IDIPOL">     3</i>
    <i name="EPSILON">      1.00000000</i>
    <v name="DIPOL">   -100.00000000   -100.00000000   -100.00000000</v>
    <i name="EFIELD">      0.00000000</i>
   </separator>
  </separator>
  <separator name="grids" >
   <i type="int" name="NGX">    28</i>
   <i type="int" name="NGY">    28</i>
   <i type="int" name="NGZ">   144</i>
   <i type="int" name="NGXF">    56</i>
   <i type="int" name="NGYF">    56</i>
   <i type="int" name="NGZF">   288</i>
   <i type="logical" name="ADDGRID"> F  </i>
  </separator>
  <separator name="ionic" >
   <i type="int" name="NSW">     0</i>
   <i type="int" name="IBRION">    -1</i>
   <i type="int" name="MDALGO">     0</i>
   <i type="int" name="ISIF">     2</i>
   <i name="PSTRESS">      0.00000000</i>
   <i name="EDIFFG">     -0.05000000</i>
   <i type="int" name="NFREE">     1</i>
   <i name="POTIM">      0.50000000</i>
   <i name="SMASS">     -3.00000000</i>
   <i name="SCALEE">      1.00000000</i>
  </separator>
  <separator name="ionic md" >
   <i name="TEBEG">      0.00010000</i>
   <i name="TEEND">      0.00010000</i>
   <i type="int" name="NBLOCK">     1</i>
   <i type="int" name="KBLOCK">     1</i>
   <i type="int" name="NPACO">   256</i>
   <i name="APACO">     16.00000000</i>
  </separator>
  <separator name="symmetry" >
   <i type="int" name="ISYM">     2</i>
   <i name="SYMPREC">      0.00001000</i>
  </separator>
  <separator name="dos" >
   <i type="int" name="LORBIT">     0</i>
   <v name="RWIGS">     -1.00000000     -1.00000000     -1.00000000</v>
   <i type="int" name="NEDOS">   301</i>
   <i name="EMIN">     10.00000000</i>
   <i name="EMAX">    -10.00000000</i>
   <i name="EFERMI">      0.00000000</i>
  </separator>
  <separator name="writing" >
   <i type="int" name="NWRITE">     2</i>
   <i type="logical" name="LWAVE"> F  </i>
   <i type="logical" name="LDOWNSAMPLE"> F  </i>
   <i type="logical" name="LCHARG"> F  </i>
   <i type="logical" name="LPARD"> F  </i>
   <i type="logical" name="LVTOT"> F  </i>
   <i type="logical" name="LVHAR"> F  </i>
   <i type="logical" name="LELF"> F  </i>
   <i type="logical" name="LOPTICS"> F  </i>
   <v name="STM">      0.00000000      0.00000000      0.00000000      0.00000000      0.00000000      0.00000000      0.00000000</v>
  </separator>
  <separator name="performance" >
   <i type="int" name="NPAR">    24</i>
   <i type="int" name="NSIM">     4</i>
   <i type="int" name="NBLK">    -1</i>
   <i type="logical" name="LPLANE"> T  </i>
   <i type="logical" name="LSCALAPACK"> T  </i>
   <i type="logical" name="LSCAAWARE"> F  </i>
   <i type="logical" name="LSCALU"> F  </i>
   <i type="logical" name="LASYNC"> F  </i>
   <i type="logical" name="LORBITALREAL"> F  </i>
  </separator>
  <separator name="miscellaneous" >
   <i type="int" name="IDIOT">     3</i>
   <i type="int" name="ISPECIAL">     0</i>
   <i type="logical" name="LMUSIC"> F  </i>
   <v name="POMASS">    196.96600000    195.08000000    192.22000000</v>
   <v name="DARWINR">      0.00000000      0.00000000      0.00000000</v>
   <v name="DARWINV">      1.00000000      1.00000000      1.00000000</v>
   <i type="logical" name="LCORR"> T  </i>
  </separator>
  <i type="logical" name="GGA_COMPAT"> T  </i>
  <i type="logical" name="LBERRY"> F  </i>
  <i type="int" name="ICORELEVEL">     0</i>
  <i type="logical" name="LDAU"> F  </i>
  <i type="int" name="I_CONSTRAINED_M">     0</i>
  <separator name="electronic exchange-correlation" >
   <i type="string" name="GGA">PE</i>
   <i type="int" name="VOSKOWN">     0</i>
   <i type="logical" name="LHFCALC"> F  </i>
   <i type="string" name="PRECFOCK"></i>
   <i type="logical" name="LSYMGRAD"> F  </i>
   <i type="logical" name="LHFONE"> F  </i>
   <i type="logical" name="LRHFCALC"> F  </i>
   <i type="logical" name="LTHOMAS"> F  </i>
   <i type="logical" name="LMODELHF"> F  </i>
   <i name="ENCUT4O">     -1.00000000</i>
   <i type="int" name="EXXOEP">     0</i>
   <i type="int" name="FOURORBIT">     0</i>
   <i name="AEXX">      0.00000000</i>
   <i name="HFALPHA">      0.00000000</i>
   <i name="MCALPHA">      0.00000000</i>
   <i name="ALDAX">      1.00000000</i>
   <i name="AGGAX">      1.00000000</i>
   <i name="ALDAC">      1.00000000</i>
   <i name="AGGAC">      1.00000000</i>
   <i type="int" name="NKREDX">     1</i>
   <i type="int" name="NKREDY">     1</i>
   <i type="int" name="NKREDZ">     1</i>
   <i type="logical" name="SHIFTRED"> F  </i>
   <i type="logical" name="ODDONLY"> F  </i>
   <i type="logical" name="EVENONLY"> F  </i>
   <i type="int" name="LMAXFOCK">     0</i>
   <i type="int" name="NMAXFOCKAE">     0</i>
   <i type="logical" name="LFOCKAEDFT"> F  </i>
   <i name="HFSCREEN">      0.00000000</i>
   <i name="HFSCREENC">      0.00000000</i>
   <i type="int" name="NBANDSGWLOW">     0</i>
  </separator>
  <separator name="vdW DFT" >
   <i type="logical" name="LUSE_VDW"> F  </i>
   <i name="Zab_VDW">     -0.84910000</i>
   <i name="PARAM1">      0.12340000</i>
   <i name="PARAM2">      1.00000000</i>
   <i name="PARAM3">      0.00000000</i>
  </separator>
  <separator name="model GW" >
   <i type="int" name="MODEL_GW">     0</i>
   <i name="MODEL_EPS0">     30.90479278</i>
   <i name="MODEL_ALPHA">      1.00000000</i>
  </separator>
  <separator name="linear response parameters" >
   <i type="logical" name="LEPSILON"> F  </i>
   <i type="logical" name="LRPA"> F  </i>
   <i type="logical" name="LNABLA"> F  </i>
   <i type="logical" name="LVEL"> F  </i>
   <i type="int" name="KINTER">     0</i>
   <i name="CSHIFT">      0.10000000</i>
   <i name="OMEGAMAX">     -1.00000000</i>
   <i name="DEG_THRESHOLD">      0.00200000</i>
   <i name="RTIME">     -0.10000000</i>
   <i name="WPLASMAI">      0.00000000</i>
   <v name="DFIELD">      0.00000000      0.00000000      0.00000000</v>
   <v name="WPLASMA">      0.00000000      0.00000000      0.00000000      0.00000000      0.00000000      0.00000000      0.00000000      0.00000000      0.00000000</v>
  </separator>
  <separator name="orbital magnetization" >
   <i type="logical" name="NUCIND"> F  </i>
   <v name="MAGPOS">      0.00000000      0.00000000      0.00000000</v>
   <i type="logical" name="LNICSALL"> T  </i>
   <i type="logical" name="ORBITALMAG"> F  </i>
   <i type="logical" name="LMAGBLOCH"> F  </i>
   <i type="logical" name="LCHIMAG"> F  </i>
   <i type="logical" name="LGAUGE"> T  </i>
   <i type="int" name="MAGATOM">     0</i>
   <v name="MAGDIPOL">      0.00000000      0.00000000      0.00000000</v>
   <v name="AVECCONST">      0.00000000      0.00000000      0.00000000</v>
  </separator>
  <separator name="response functions" >
   <i type="logical" name="LADDER"> F  </i>
   <i type="logical" name="LRPAFORCE"> F  </i>
   <i type="logical" name="LFXC"> F  </i>
   <i type="logical" name="LHARTREE"> T  </i>
   <i type="int" name="IBSE">     0</i>
   <v type="int" name="KPOINT">    -1     0     0     0</v>
   <i type="logical" name="LTCTE"> F  </i>
   <i type="logical" name="LTETE"> F  </i>
   <i type="logical" name="LTRIPLET"> F  </i>
   <i type="logical" name="LFXCEPS"> F  </i>
   <i type="logical" name="LFXHEG"> F  </i>
   <i type="int" name="NATURALO">     2</i>
   <i type="logical" name="L2ORDER"> F  </i>
   <i type="logical" name="LMP2LT"> F  </i>
   <i type="logical" name="LUSEW"> F  </i>
   <i name="ENCUTGW">     -2.00000000</i>
   <i name="ENCUTGWSOFT">     -2.00000000</i>
   <i name="ENCUTLF">     -1.00000000</i>
   <i type="int" name="LMAXMP2">    -1</i>
   <i name="SCISSOR">      0.00000000</i>
   <i type="int" name="NOMEGA">     0</i>
   <i type="int" name="NOMEGAR">     0</i>
   <i type="int" name="NBANDSGW">    -1</i>
   <i type="int" name="NBANDSO">    -1</i>
   <i type="int" name="NBANDSV">    -1</i>
   <i type="int" name="NELM">     1</i>
   <i type="int" name="NELMHF">     1</i>
   <i type="int" name="DIM">     3</i>
   <i type="int" name="ANTIRES">     0</i>
   <i name="OMEGAMAX">    -30.00000000</i>
   <i name="OMEGAMIN">    -30.00000000</i>
   <i name="OMEGATL">   -200.00000000</i>
   <i type="int" name="OMEGAGRID">   140</i>
   <i name="CSHIFT">     -0.10000000</i>
   <i type="logical" name="SELFENERGY"> F  </i>
   <i type="logical" name="LSPECTRAL"> F  </i>
   <i type="logical" name="LSPECTRALGW"> F  </i>
   <i type="logical" name="LSINGLES"> F  </i>
   <i type="logical" name="LFERMIGW"> F  </i>
   <i type="logical" name="ODDONLYGW"> F  </i>
   <i type="logical" name="EVENONLYGW"> F  </i>
   <i type="int" name="NKREDLFX">     1</i>
   <i type="int" name="NKREDLFY">     1</i>
   <i type="int" name="NKREDLFZ">     1</i>
   <i type="int" name="MAXMEM">  2800</i>
   <i type="int" name="TELESCOPE">     0</i>
   <i type="int" name="TAUPAR">     1</i>
   <i type="int" name="OMEGAPAR">    -1</i>
   <i name="LAMBDA">      1.00000000</i>
  </separator>
  <separator name="External order field" >
   <i name="OFIELD_KAPPA">      0.00000000</i>
   <v name="OFIELD_K">      0.00000000      0.00000000      0.00000000</v>
   <i name="OFIELD_Q6_NEAR">      0.00000000</i>
   <i name="OFIELD_Q6_FAR">      0.00000000</i>
   <i name="OFIELD_A">      0.00000000</i>
  </separator>
 </parameters>
 <atominfo>
  <atoms>      16 </atoms>
  <types>       3 </types>
  <array name="atoms" >
   <dimension dim="1">ion</dimension>
   <field type="string">element</field>
   <field type="int">atomtype</field>
   <set>
    <rc><c>Au</c><c>   1</c></rc>
    <rc><c>Pt</c><c>   2</c></rc>
    <rc><c>Pt</c><c>   2</c></rc>
    <rc><c>Pt</c><c>   2</c></rc>
    <rc><c>Pt</c><c>   2</c></rc>
    <rc><c>Pt</c><c>   2</c></rc>
    <rc><c>Pt</c><c>   2</c></rc>
    <rc><c>Pt</c><c>   2</c></rc>
    <rc><c>Pt</c><c>   2</c></rc>
    <rc><c>Pt</c><c>   2</c></rc>
    <rc><c>Pt</c><c>   2</c></rc>
    <rc><c>Pt</c><c>   2</c></rc>
    <rc><c>Pt</c><c>   2</c></rc>
    <rc><c>Pt</c><c>   2</c></rc>
    <rc><c>Pt</c><c>   2</c></rc>
    <rc><c>Ir</c><c>   3</c></rc>
   </set>
  </array>
  <array name="atomtypes" >
   <dimension dim="1">type</dimension>
   <field type="int">atomspertype</field>
   <field type="string">element</field>
   <field>mass</field>
   <field>valence</field>
   <field type="string">pseudopotential</field>
   <set>
    <rc><c>   1</c><c>Au</c><c>    196.96600000</c><c>     11.00000000</c><c>  PAW_PBE Au 04Oct2007                  </c></rc>
    <rc><c>  14</c><c>Pt</c><c>    195.08000000</c><c>     10.00000000</c><c>  PAW_PBE Pt 04Feb2005                  </c></rc>
    <rc><c>   1</c><c>Ir</c><c>    192.22000000</c><c>      9.00000000</c><c>  PAW_PBE Ir 06Sep2000                  </c></rc>
   </set>
  </array>
 </atominfo>
 <structure name="initialpos" >
  <crystal>
   <varray name="basis" >
    <v>       5.55785930       0.00000000       0.00000000 </v>
    <v>       2.77892965       4.81324734       0.00000000 </v>
    <v>       0.00000000       0.00000000      30.80695967 </v>
   </varray>
   <i name="volume">    824.12780743 </i>
   <varray name="rec_basis" >
    <v>       0.17992539      -0.10387997       0.00000000 </v>
    <v>       0.00000000       0.20775994       0.00000000 </v>
    <v>       0.00000000       0.00000000       0.03246020 </v>
   </varray>
  </crystal>
  <varray name="positions" >
   <v>       0.00000000       0.00000000       0.38952237 </v>
   <v>       0.50000000       0.00000000       0.38952237 </v>
   <v>       0.00000000       0.50000000       0.38952237 </v>
   <v>       0.50000000       0.50000000       0.38952237 </v>
   <v>       0.16666667       0.16666667       0.46468540 </v>
   <v>       0.66666667       0.16666667       0.46468540 </v>
   <v>       0.16666667       0.66666667       0.46468540 </v>
   <v>       0.66666667       0.66666667       0.46468540 </v>
   <v>       0.83333333       0.33333333       0.53920296 </v>
   <v>       0.33333333       0.33333333       0.53920296 </v>
   <v>       0.83333333       0.83333333       0.53920296 </v>
   <v>       0.33333333       0.83333333       0.53920296 </v>
   <v>       0.00000000       0.00000000       0.61486043 </v>
   <v>       0.00000000       0.50000000       0.61486043 </v>
   <v>       0.50000000       0.50000000       0.61486043 </v>
   <v>       0.50000000       0.00000000       0.61486043 </v>
  </varray>
  <varray name="selective"  type="logical" >
   <v type="logical" >  F  F  F </v>
   <v type="logical" >  F  F  F </v>
   <v type="logical" >  F  F  F </v>
   <v type="logical" >  F  F  F </v>
   <v type="logical" >  T  T  T </v>
   <v type="logical" >  T  T  T </v>
   <v type="logical" >  T  T  T </v>
   <v type="logical" >  T  T  T </v>
   <v type="logical" >  T  T  T </v>
   <v type="logical" >  T  T  T </v>
   <v type="logical" >  T  T  T </v>
   <v type="logical" >  T  T  T </v>
   <v type="logical" >  T  T  T </v>
   <v type="logical" >  T  T  T </v>
   <v type="logical" >  T  T  T </v>
   <v type="logical" >  T  T  T </v>
  </varray>
  <nose>
   <v>      -3.00000000       0.00000000       0.00010000       0.00010000 </v>
  </nose>
 </structure>
 <calculation>
  <scstep>
   <time name="dav">   10.80   10.84</time>
   <time name="total">   10.83   10.88</time>
   <energy>
    <i name="alphaZ">    303.52543553 </i>
    <i name="ewald">  98439.91766519 </i>
    <i name="hartreedc">-110511.43137500 </i>
    <i name="XCdc">     46.26589393 </i>
    <i name="pawpsdc">  11171.21661038 </i>
    <i name="pawaedc"> -10711.84633960 </i>
    <i name="eentropy">     -0.00372318 </i>
    <i name="bandstr">    546.51755521 </i>
    <i name="atom">  11693.69420960 </i>
    <i name="e_fr_energy">    977.85593206 </i>
    <i name="e_wo_entrp">    977.85965524 </i>
    <i name="e_0_energy">    977.85717312 </i>
   </energy>
  </scstep>
  <scstep>
   <time name="dav">   14.68   14.73</time>
   <time name="total">   14.68   14.73</time>
   <energy>
    <i name="e_fr_energy">    -39.16054301 </i>
    <i name="e_wo_entrp">    -39.16594714 </i>
    <i name="e_0_energy">    -39.16234439 </i>
   </energy>
  </scstep>
  <scstep>
   <time name="dav">   12.82   12.86</time>
   <time name="total">   12.82   12.86</time>
   <energy>
    <i name="e_fr_energy">    -97.01875335 </i>
    <i name="e_wo_entrp">    -96.99196868 </i>
    <i name="e_0_energy">    -97.00982513 </i>
   </energy>
  </scstep>
  <scstep>
   <time name="dav">   14.26   14.30</time>
   <time name="total">   14.26   14.30</time>
   <energy>
    <i name="e_fr_energy">    -98.23069806 </i>
    <i name="e_wo_entrp">    -98.20434605 </i>
    <i name="e_0_energy">    -98.22191406 </i>
   </energy>
  </scstep>
  <scstep>
   <time name="dav">   15.05   15.10</time>
   <time name="total">   15.38   15.43</time>
   <energy>
    <i name="e_fr_energy">    -98.26340621 </i>
    <i name="e_wo_entrp">    -98.23712116 </i>
    <i name="e_0_energy">    -98.25464453 </i>
   </energy>
  </scstep>
  <scstep>
   <time name="dav">   12.21   12.23</time>
   <time name="total">   12.57   12.60</time>
   <energy>
    <i name="e_fr_energy">    -94.34621250 </i>
    <i name="e_wo_entrp">    -94.32612576 </i>
    <i name="e_0_energy">    -94.33951692 </i>
   </energy>
  </scstep>
  <scstep>
   <time name="dav">   14.68   14.72</time>
   <time name="total">   15.04   15.07</time>
   <energy>
    <i name="e_fr_energy">   -123.82382088 </i>
    <i name="e_wo_entrp">   -123.82904308 </i>
    <i name="e_0_energy">   -123.82556162 </i>
   </energy>
  </scstep>
  <scstep>
   <time name="dav">   15.10   15.15</time>
   <time name="total">   15.46   15.51</time>
   <energy>
    <i name="e_fr_energy">   -101.26423564 </i>
    <i name="e_wo_entrp">   -101.27709626 </i>
    <i name="e_0_energy">   -101.26852251 </i>
   </energy>
  </scstep>
  <scstep>
   <time name="dav">   13.67   13.71</time>
   <time name="total">   14.03   14.07</time>
   <energy>
    <i name="e_fr_energy">   -103.01397704 </i>
    <i name="e_wo_entrp">   -103.03960551 </i>
    <i name="e_0_energy">   -103.02251987 </i>
   </energy>
  </scstep>
  <scstep>
   <time name="dav">   16.03   16.07</time>
   <time name="total">   16.38   16.42</time>
   <energy>
    <i name="e_fr_energy">   -101.23800072 </i>
    <i name="e_wo_entrp">   -101.20698688 </i>
    <i name="e_0_energy">   -101.22766277 </i>
   </energy>
  </scstep>
  <scstep>
   <time name="dav">   14.02   14.06</time>
   <time name="total">   14.41   14.44</time>
   <energy>
    <i name="e_fr_energy">    -92.97920131 </i>
    <i name="e_wo_entrp">    -92.93321935 </i>
    <i name="e_0_energy">    -92.96387399 </i>
   </energy>
  </scstep>
  <scstep>
   <time name="dav">   14.90   14.93</time>
   <time name="total">   15.28   15.32</time>
   <energy>
    <i name="e_fr_energy">    -93.08035175 </i>
    <i name="e_wo_entrp">    -93.05672825 </i>
    <i name="e_0_energy">    -93.07247725 </i>
   </energy>
  </scstep>
  <scstep>
   <time name="dav">   14.29   14.32</time>
   <time name="total">   14.71   14.75</time>
   <energy>
    <i name="e_fr_energy">    -92.13950119 </i>
    <i name="e_wo_entrp">    -92.09405368 </i>
    <i name="e_0_energy">    -92.12435202 </i>
   </energy>
  </scstep>
  <scstep>
   <time name="dav">   12.30   12.33</time>
   <time name="total">   12.69   12.72</time>
   <energy>
    <i name="e_fr_energy">    -92.06170853 </i>
    <i name="e_wo_entrp">    -92.02737995 </i>
    <i name="e_0_energy">    -92.05026567 </i>
   </energy>
  </scstep>
  <scstep>
   <time name="dav">   13.10   13.13</time>
   <time name="total">   13.49   13.53</time>
   <energy>
    <i name="e_fr_energy">    -92.06093916 </i>
    <i name="e_wo_entrp">    -92.02375846 </i>
    <i name="e_0_energy">    -92.04854559 </i>
   </energy>
  </scstep>
  <scstep>
   <time name="dav">   14.96   15.00</time>
   <time name="total">   15.36   15.40</time>
   <energy>
    <i name="e_fr_energy">    -92.05284704 </i>
    <i name="e_wo_entrp">    -92.01620862 </i>
    <i name="e_0_energy">    -92.04063423 </i>
   </energy>
  </scstep>
  <scstep>
   <time name="dav">   12.62   12.65</time>
   <time name="total">   13.01   13.05</time>
   <energy>
    <i name="e_fr_energy">    -92.01628701 </i>
    <i name="e_wo_entrp">    -91.97703353 </i>
    <i name="e_0_energy">    -92.00320252 </i>
   </energy>
  </scstep>
  <scstep>
   <time name="dav">   12.84   12.87</time>
   <time name="total">   13.23   13.27</time>
   <energy>
    <i name="e_fr_energy">    -92.01775997 </i>
    <i name="e_wo_entrp">    -91.97882034 </i>
    <i name="e_0_energy">    -92.00478009 </i>
   </energy>
  </scstep>
  <scstep>
   <time name="dav">   12.13   12.16</time>
   <time name="total">   12.53   12.57</time>
   <energy>
    <i name="e_fr_energy">    -92.01512956 </i>
    <i name="e_wo_entrp">    -91.97619836 </i>
    <i name="e_0_energy">    -92.00215249 </i>
   </energy>
  </scstep>
  <scstep>
   <time name="dav">   13.87   13.90</time>
   <time name="total">   14.26   14.30</time>
   <energy>
    <i name="e_fr_energy">    -92.01264407 </i>
    <i name="e_wo_entrp">    -91.97319515 </i>
    <i name="e_0_energy">    -91.99949443 </i>
   </energy>
  </scstep>
  <scstep>
   <time name="dav">   13.07   13.10</time>
   <time name="total">   13.46   13.50</time>
   <energy>
    <i name="e_fr_energy">    -92.01137334 </i>
    <i name="e_wo_entrp">    -91.97219433 </i>
    <i name="e_0_energy">    -91.99831367 </i>
   </energy>
  </scstep>
  <scstep>
   <time name="dav">   13.06   13.09</time>
   <time name="total">   13.45   13.50</time>
   <energy>
    <i name="e_fr_energy">    -92.01133945 </i>
    <i name="e_wo_entrp">    -91.97206214 </i>
    <i name="e_0_energy">    -91.99824702 </i>
   </energy>
  </scstep>
  <scstep>
   <time name="dav">   15.11   15.15</time>
   <time name="total">   15.51   15.55</time>
   <energy>
    <i name="e_fr_energy">    -92.01039764 </i>
    <i name="e_wo_entrp">    -91.97080728 </i>
    <i name="e_0_energy">    -91.99720085 </i>
   </energy>
  </scstep>
  <scstep>
   <time name="dav">   15.35   15.40</time>
   <time name="total">   15.75   15.79</time>
   <energy>
    <i name="e_fr_energy">    -92.01009190 </i>
    <i name="e_wo_entrp">    -91.97036647 </i>
    <i name="e_0_energy">    -91.99685009 </i>
   </energy>
  </scstep>
  <scstep>
   <time name="dav">   14.09   14.13</time>
   <time name="total">   14.49   14.53</time>
   <energy>
    <i name="e_fr_energy">    -92.00989589 </i>
    <i name="e_wo_entrp">    -91.96994319 </i>
    <i name="e_0_energy">    -91.99657832 </i>
   </energy>
  </scstep>
  <scstep>
   <time name="dav">   11.38   11.41</time>
   <time name="total">   11.78   11.81</time>
   <energy>
    <i name="e_fr_energy">    -92.00987122 </i>
    <i name="e_wo_entrp">    -91.96969764 </i>
    <i name="e_0_energy">    -91.99648002 </i>
   </energy>
  </scstep>
  <scstep>
   <time name="dav">    8.78    8.81</time>
   <time name="total">    8.81    8.83</time>
   <energy>
    <i name="alphaZ">    303.52543553 </i>
    <i name="ewald">  98439.91766519 </i>
    <i name="hartreedc">-110343.63656100 </i>
    <i name="XCdc">     40.60477322 </i>
    <i name="pawpsdc">  14193.00408000 </i>
    <i name="pawaedc"> -13777.99104969 </i>
    <i name="eentropy">     -0.04021235 </i>
    <i name="bandstr">   -641.08821930 </i>
    <i name="atom">  11693.69420960 </i>
    <i name="e_fr_energy">    -92.00987880 </i>
    <i name="e_wo_entrp">    -91.96966645 </i>
    <i name="e_0_energy">    -91.99647468 </i>
   </energy>
  </scstep>
  <dipole>
   <v name="dipole">      0.00000000       0.00000000       0.02303628 </v>
   <i name="Tr[quadrupol]">   -943.52826590 </i>
   <i name="Echarged">      0.00000000 </i>
   <i name="Edipol_quadrupol">      0.00000000 </i>
   <i name="Eion">      0.00000000 </i>
  </dipole>
  <structure>
   <crystal>
    <varray name="basis" >
     <v>       5.55785930       0.00000000       0.00000000 </v>
     <v>       2.77892965       4.81324734       0.00000000 </v>
     <v>       0.00000000       0.00000000      30.80695967 </v>
    </varray>
    <i name="volume">    824.12780743 </i>
    <varray name="rec_basis" >
     <v>       0.17992539      -0.10387997       0.00000000 </v>
     <v>       0.00000000       0.20775994       0.00000000 </v>
     <v>       0.00000000       0.00000000       0.03246020 </v>
    </varray>
   </crystal>
   <varray name="positions" >
    <v>       0.00000000       0.00000000       0.38952237 </v>
    <v>       0.50000000       0.00000000       0.38952237 </v>
    <v>       0.00000000       0.50000000       0.38952237 </v>
    <v>       0.50000000       0.50000000       0.38952237 </v>
    <v>       0.16666667       0.16666667       0.46468540 </v>
    <v>       0.66666667       0.16666667       0.46468540 </v>
    <v>       0.16666667       0.66666667       0.46468540 </v>
    <v>       0.66666667       0.66666667       0.46468540 </v>
    <v>       0.83333333       0.33333333       0.53920296 </v>
    <v>       0.33333333       0.33333333       0.53920296 </v>
    <v>       0.83333333       0.83333333       0.53920296 </v>
    <v>       0.33333333       0.83333333       0.53920296 </v>
    <v>       0.00000000       0.00000000       0.61486043 </v>
    <v>       0.00000000       0.50000000       0.61486043 </v>
    <v>       0.50000000       0.50000000       0.61486043 </v>
    <v>       0.50000000       0.00000000       0.61486043 </v>
   </varray>
  </structure>
  <varray name="forces" >
   <v>      -0.00000000      -0.01948662      -1.16052053 </v>
   <v>      -0.00000000      -0.01316880       0.05850057 </v>
   <v>       0.01702324       0.01281874       0.06415305 </v>
   <v>      -0.01702324       0.01281874       0.06415305 </v>
   <v>       0.13867908       0.07883963       0.19581200 </v>
   <v>      -0.13867908       0.07883963       0.19581200 </v>
   <v>      -0.00000000      -0.15984095       0.40961824 </v>
   <v>      -0.00000000       0.00679992      -0.07091290 </v>
   <v>      -0.00000000      -0.00077951      -0.02909878 </v>
   <v>      -0.00000000      -0.16452736       0.57802680 </v>
   <v>      -0.14173289       0.07766657       0.30173209 </v>
   <v>       0.14173289       0.07766657       0.30173209 </v>
   <v>      -0.00000000      -0.01775366       0.06784707 </v>
   <v>      -0.00660533       0.03754353       0.08248558 </v>
   <v>       0.00660533       0.03754353       0.08248558 </v>
   <v>      -0.00000000      -0.04497995      -1.14182594 </v>
  </varray>
  <varray name="stress" >
   <v>     -21.82190791       0.00000000       0.00000000 </v>
   <v>       0.00000000     -21.92060757       0.09927684 </v>
   <v>       0.00000000       0.09927722      -1.07622302 </v>
  </varray>
  <energy>
   <i name="e_fr_energy">    -92.00982054 </i>
   <i name="e_wo_entrp">    -91.99641642 </i>
   <i name="e_0_energy">     -0.04021235 </i>
  </energy>
  <time name="totalsc">  391.30  392.42</time>
  <eigenvalues>
   <array>
    <dimension dim="1">band</dimension>
    <dimension dim="2">kpoint</dimension>
    <dimension dim="3">spin</dimension>
    <field>eigene</field>
    <field>occ</field>
    <set>
     <set comment="spin 1">
      <set comment="kpoint 1">
       <r>  -10.1871    1.0000 </r>
       <r>   -8.9165    1.0000 </r>
       <r>   -7.8583    1.0000 </r>
       <r>   -7.7260    1.0000 </r>
       <r>   -7.4582    1.0000 </r>
       <r>   -7.4363    1.0000 </r>
       <r>   -7.4270    1.0000 </r>
       <r>   -7.3084    1.0000 </r>
       <r>   -7.2959    1.0000 </r>
       <r>   -7.2794    1.0000 </r>
       <r>   -6.8368    1.0000 </r>
       <r>   -6.8291    1.0000 </r>
       <r>   -6.8248    1.0000 </r>
       <r>   -6.8018    1.0000 </r>
       <r>   -6.7926    1.0000 </r>
       <r>   -6.5933    1.0000 </r>
       <r>   -6.5404    1.0000 </r>
       <r>   -6.5151    1.0000 </r>
       <r>   -6.4709    1.0000 </r>
       <r>   -5.7988    1.0000 </r>
       <r>   -5.7879    1.0000 </r>
       <r>   -5.6808    1.0000 </r>
       <r>   -4.9262    1.0000 </r>
       <r>   -4.9086    1.0000 </r>
       <r>   -4.8088    1.0000 </r>
       <r>   -4.6736    1.0000 </r>
       <r>   -4.6597    1.0000 </r>
       <r>   -4.6453    1.0000 </r>
       <r>   -4.6080    1.0000 </r>
       <r>   -4.5254    1.0000 </r>
       <r>   -4.3671    1.0000 </r>
       <r>   -4.3213    1.0000 </r>
       <r>   -4.2080    1.0000 </r>
       <r>   -4.2001    1.0000 </r>
       <r>   -4.0657    1.0000 </r>
       <r>   -4.0355    1.0000 </r>
       <r>   -3.9966    1.0000 </r>
       <r>   -3.9830    1.0000 </r>
       <r>   -3.9491    1.0000 </r>
       <r>   -3.8424    1.0000 </r>
       <r>   -3.6948    1.0000 </r>
       <r>   -3.6610    1.0000 </r>
       <r>   -3.4979    1.0000 </r>
       <r>   -3.4652    1.0000 </r>
       <r>   -3.3879    1.0000 </r>
       <r>   -3.1900    1.0000 </r>
       <r>   -3.1194    1.0000 </r>
       <r>   -2.9483    1.0000 </r>
       <r>   -2.8880    1.0000 </r>
       <r>   -2.8175    1.0000 </r>
       <r>   -2.7117    1.0000 </r>
       <r>   -2.3566    1.0000 </r>
       <r>   -2.3425    1.0000 </r>
       <r>   -2.1321    1.0000 </r>
       <r>   -2.1066    1.0000 </r>
       <r>   -1.8669    1.0000 </r>
       <r>   -1.8069    1.0000 </r>
       <r>   -1.6982    1.0000 </r>
       <r>   -1.6549    1.0000 </r>
       <r>   -1.5866    1.0000 </r>
       <r>   -1.5292    1.0000 </r>
       <r>   -1.4805    1.0000 </r>
       <r>   -1.3084    1.0012 </r>
       <r>   -1.1772    1.0132 </r>
       <r>   -1.1341    1.0223 </r>
       <r>   -1.0936    1.0312 </r>
       <r>   -1.0603    1.0354 </r>
       <r>   -0.9973    1.0167 </r>
       <r>   -0.9439    0.9474 </r>
       <r>   -0.8962    0.8275 </r>
       <r>   -0.8176    0.5289 </r>
       <r>   -0.7825    0.3819 </r>
       <r>   -0.7712    0.3365 </r>
       <r>   -0.7384    0.2149 </r>
       <r>   -0.7027    0.1086 </r>
       <r>   -0.6989    0.0992 </r>
       <r>   -0.6615    0.0251 </r>
       <r>   -0.5291   -0.0315 </r>
       <r>   -0.5221   -0.0301 </r>
       <r>   -0.4909   -0.0231 </r>
       <r>   -0.3526   -0.0028 </r>
       <r>   -0.2017   -0.0001 </r>
       <r>   -0.0765   -0.0000 </r>
       <r>   -0.0013   -0.0000 </r>
       <r>    0.0328   -0.0000 </r>
       <r>    0.0811   -0.0000 </r>
       <r>    0.3262   -0.0000 </r>
       <r>    0.4503   -0.0000 </r>
       <r>    1.2015   -0.0000 </r>
       <r>    1.4903   -0.0000 </r>
       <r>    1.6306   -0.0000 </r>
       <r>    1.6338   -0.0000 </r>
       <r>    1.7343   -0.0000 </r>
       <r>    1.8098   -0.0000 </r>
       <r>    2.5802   -0.0000 </r>
       <r>    2.5928   -0.0000 </r>
      </set>
      <set comment="kpoint 2">
       <r>  -10.1871    1.0000 </r>
       <r>   -8.9165    1.0000 </r>
       <r>   -7.8583    1.0000 </r>
       <r>   -7.7260    1.0000 </r>
       <r>   -7.4589    1.0000 </r>
       <r>   -7.4325    1.0000 </r>
       <r>   -7.4301    1.0000 </r>
       <r>   -7.3076    1.0000 </r>
       <r>   -7.2967    1.0000 </r>
       <r>   -7.2794    1.0000 </r>
       <r>   -6.8371    1.0000 </r>
       <r>   -6.8312    1.0000 </r>
       <r>   -6.8222    1.0000 </r>
       <r>   -6.8030    1.0000 </r>
       <r>   -6.7915    1.0000 </r>
       <r>   -6.5948    1.0000 </r>
       <r>   -6.5431    1.0000 </r>
       <r>   -6.5070    1.0000 </r>
       <r>   -6.4751    1.0000 </r>
       <r>   -5.7973    1.0000 </r>
       <r>   -5.7892    1.0000 </r>
       <r>   -5.6811    1.0000 </r>
       <r>   -4.9200    1.0000 </r>
       <r>   -4.9143    1.0000 </r>
       <r>   -4.8089    1.0000 </r>
       <r>   -4.6816    1.0000 </r>
       <r>   -4.6537    1.0000 </r>
       <r>   -4.6440    1.0000 </r>
       <r>   -4.6082    1.0000 </r>
       <r>   -4.5248    1.0000 </r>
       <r>   -4.3672    1.0000 </r>
       <r>   -4.3213    1.0000 </r>
       <r>   -4.2104    1.0000 </r>
       <r>   -4.1982    1.0000 </r>
       <r>   -4.0640    1.0000 </r>
       <r>   -4.0375    1.0000 </r>
       <r>   -3.9904    1.0000 </r>
       <r>   -3.9858    1.0000 </r>
       <r>   -3.9521    1.0000 </r>
       <r>   -3.8404    1.0000 </r>
       <r>   -3.6953    1.0000 </r>
       <r>   -3.6614    1.0000 </r>
       <r>   -3.5021    1.0000 </r>
       <r>   -3.4627    1.0000 </r>
       <r>   -3.3879    1.0000 </r>
       <r>   -3.1660    1.0000 </r>
       <r>   -3.1493    1.0000 </r>
       <r>   -2.9312    1.0000 </r>
       <r>   -2.9179    1.0000 </r>
       <r>   -2.7735    1.0000 </r>
       <r>   -2.7368    1.0000 </r>
       <r>   -2.3515    1.0000 </r>
       <r>   -2.3490    1.0000 </r>
       <r>   -2.1193    1.0000 </r>
       <r>   -2.1115    1.0000 </r>
       <r>   -1.8412    1.0000 </r>
       <r>   -1.8379    1.0000 </r>
       <r>   -1.6836    1.0000 </r>
       <r>   -1.6567    1.0000 </r>
       <r>   -1.5802    1.0000 </r>
       <r>   -1.5626    1.0000 </r>
       <r>   -1.5032    1.0000 </r>
       <r>   -1.2755    1.0025 </r>
       <r>   -1.1515    1.0184 </r>
       <r>   -1.1150    1.0267 </r>
       <r>   -1.1041    1.0291 </r>
       <r>   -1.0322    1.0330 </r>
       <r>   -1.0191    1.0289 </r>
       <r>   -0.9985    1.0176 </r>
       <r>   -0.9039    0.8507 </r>
       <r>   -0.8079    0.4879 </r>
       <r>   -0.7896    0.4114 </r>
       <r>   -0.7523    0.2640 </r>
       <r>   -0.7356    0.2056 </r>
       <r>   -0.7021    0.1071 </r>
       <r>   -0.6938    0.0870 </r>
       <r>   -0.6704    0.0396 </r>
       <r>   -0.5296   -0.0316 </r>
       <r>   -0.5133   -0.0282 </r>
       <r>   -0.4903   -0.0230 </r>
       <r>   -0.3394   -0.0021 </r>
       <r>   -0.2006   -0.0001 </r>
       <r>   -0.1016   -0.0000 </r>
       <r>   -0.0183   -0.0000 </r>
       <r>    0.0343   -0.0000 </r>
       <r>    0.0887   -0.0000 </r>
       <r>    0.3750   -0.0000 </r>
       <r>    0.4150   -0.0000 </r>
       <r>    1.2003   -0.0000 </r>
       <r>    1.4923   -0.0000 </r>
       <r>    1.6191   -0.0000 </r>
       <r>    1.6426   -0.0000 </r>
       <r>    1.7703   -0.0000 </r>
       <r>    1.7752   -0.0000 </r>
       <r>    2.5862   -0.0000 </r>
       <r>    2.5879   -0.0000 </r>
      </set>
      <set comment="kpoint 3">
       <r>   -9.9832    1.0000 </r>
       <r>   -8.7149    1.0000 </r>
       <r>   -7.6542    1.0000 </r>
       <r>   -7.5310    1.0000 </r>
       <r>   -7.4399    1.0000 </r>
       <r>   -7.3622    1.0000 </r>
       <r>   -7.2439    1.0000 </r>
       <r>   -7.2256    1.0000 </r>
       <r>   -7.1763    1.0000 </r>
       <r>   -7.1087    1.0000 </r>
       <r>   -6.7513    1.0000 </r>
       <r>   -6.7274    1.0000 </r>
       <r>   -6.7183    1.0000 </r>
       <r>   -6.7166    1.0000 </r>
       <r>   -6.6518    1.0000 </r>
       <r>   -6.4766    1.0000 </r>
       <r>   -6.4263    1.0000 </r>
       <r>   -6.3716    1.0000 </r>
       <r>   -6.2905    1.0000 </r>
       <r>   -5.7427    1.0000 </r>
       <r>   -5.7229    1.0000 </r>
       <r>   -5.6255    1.0000 </r>
       <r>   -4.9711    1.0000 </r>
       <r>   -4.9000    1.0000 </r>
       <r>   -4.8493    1.0000 </r>
       <r>   -4.7169    1.0000 </r>
       <r>   -4.6697    1.0000 </r>
       <r>   -4.5866    1.0000 </r>
       <r>   -4.5789    1.0000 </r>
       <r>   -4.5462    1.0000 </r>
       <r>   -4.4726    1.0000 </r>
       <r>   -4.2033    1.0000 </r>
       <r>   -4.1731    1.0000 </r>
       <r>   -4.1490    1.0000 </r>
       <r>   -4.1038    1.0000 </r>
       <r>   -4.0406    1.0000 </r>
       <r>   -4.0178    1.0000 </r>
       <r>   -3.9799    1.0000 </r>
       <r>   -3.9170    1.0000 </r>
       <r>   -3.8730    1.0000 </r>
       <r>   -3.7768    1.0000 </r>
       <r>   -3.6477    1.0000 </r>
       <r>   -3.6269    1.0000 </r>
       <r>   -3.5419    1.0000 </r>
       <r>   -3.5093    1.0000 </r>
       <r>   -3.4716    1.0000 </r>
       <r>   -3.3024    1.0000 </r>
       <r>   -3.1082    1.0000 </r>
       <r>   -2.9798    1.0000 </r>
       <r>   -2.8289    1.0000 </r>
       <r>   -2.6681    1.0000 </r>
       <r>   -2.4805    1.0000 </r>
       <r>   -2.4260    1.0000 </r>
       <r>   -2.3363    1.0000 </r>
       <r>   -2.1322    1.0000 </r>
       <r>   -2.0376    1.0000 </r>
       <r>   -1.9794    1.0000 </r>
       <r>   -1.9334    1.0000 </r>
       <r>   -1.8464    1.0000 </r>
       <r>   -1.7982    1.0000 </r>
       <r>   -1.7146    1.0000 </r>
       <r>   -1.7022    1.0000 </r>
       <r>   -1.6433    1.0000 </r>
       <r>   -1.5516    1.0000 </r>
       <r>   -1.5344    1.0000 </r>
       <r>   -1.4354    1.0000 </r>
       <r>   -1.2861    1.0020 </r>
       <r>   -1.2206    1.0068 </r>
       <r>   -1.1557    1.0175 </r>
       <r>   -1.0939    1.0312 </r>
       <r>   -1.0508    1.0354 </r>
       <r>   -0.9876    1.0086 </r>
       <r>   -0.9609    0.9764 </r>
       <r>   -0.9221    0.8998 </r>
       <r>   -0.8520    0.6705 </r>
       <r>   -0.8429    0.6340 </r>
       <r>   -0.8241    0.5565 </r>
       <r>   -0.7770    0.3595 </r>
       <r>   -0.6956    0.0913 </r>
       <r>   -0.6473    0.0057 </r>
       <r>   -0.5859   -0.0337 </r>
       <r>   -0.4657   -0.0175 </r>
       <r>   -0.3584   -0.0031 </r>
       <r>   -0.2912   -0.0007 </r>
       <r>   -0.1872   -0.0000 </r>
       <r>    0.1839   -0.0000 </r>
       <r>    0.2632   -0.0000 </r>
       <r>    0.8148   -0.0000 </r>
       <r>    0.8477   -0.0000 </r>
       <r>    1.0981   -0.0000 </r>
       <r>    1.2844   -0.0000 </r>
       <r>    1.6226   -0.0000 </r>
       <r>    2.1409   -0.0000 </r>
       <r>    2.5234   -0.0000 </r>
       <r>    3.0130   -0.0000 </r>
       <r>    3.3681   -0.0000 </r>
      </set>
      <set comment="kpoint 4">
       <r>   -9.9832    1.0000 </r>
       <r>   -8.7149    1.0000 </r>
       <r>   -7.6542    1.0000 </r>
       <r>   -7.5310    1.0000 </r>
       <r>   -7.4400    1.0000 </r>
       <r>   -7.3618    1.0000 </r>
       <r>   -7.2440    1.0000 </r>
       <r>   -7.2252    1.0000 </r>
       <r>   -7.1764    1.0000 </r>
       <r>   -7.1089    1.0000 </r>
       <r>   -6.7515    1.0000 </r>
       <r>   -6.7276    1.0000 </r>
       <r>   -6.7226    1.0000 </r>
       <r>   -6.7107    1.0000 </r>
       <r>   -6.6532    1.0000 </r>
       <r>   -6.4816    1.0000 </r>
       <r>   -6.4185    1.0000 </r>
       <r>   -6.3727    1.0000 </r>
       <r>   -6.2923    1.0000 </r>
       <r>   -5.7405    1.0000 </r>
       <r>   -5.7241    1.0000 </r>
       <r>   -5.6267    1.0000 </r>
       <r>   -4.9675    1.0000 </r>
       <r>   -4.9037    1.0000 </r>
       <r>   -4.8482    1.0000 </r>
       <r>   -4.7199    1.0000 </r>
       <r>   -4.6695    1.0000 </r>
       <r>   -4.5914    1.0000 </r>
       <r>   -4.5763    1.0000 </r>
       <r>   -4.5405    1.0000 </r>
       <r>   -4.4749    1.0000 </r>
       <r>   -4.2073    1.0000 </r>
       <r>   -4.1722    1.0000 </r>
       <r>   -4.1405    1.0000 </r>
       <r>   -4.1101    1.0000 </r>
       <r>   -4.0357    1.0000 </r>
       <r>   -4.0053    1.0000 </r>
       <r>   -3.9845    1.0000 </r>
       <r>   -3.9254    1.0000 </r>
       <r>   -3.8733    1.0000 </r>
       <r>   -3.7819    1.0000 </r>
       <r>   -3.6449    1.0000 </r>
       <r>   -3.6187    1.0000 </r>
       <r>   -3.5452    1.0000 </r>
       <r>   -3.5180    1.0000 </r>
       <r>   -3.4752    1.0000 </r>
       <r>   -3.2846    1.0000 </r>
       <r>   -3.1450    1.0000 </r>
       <r>   -2.9485    1.0000 </r>
       <r>   -2.8258    1.0000 </r>
       <r>   -2.6808    1.0000 </r>
       <r>   -2.4719    1.0000 </r>
       <r>   -2.4377    1.0000 </r>
       <r>   -2.3060    1.0000 </r>
       <r>   -2.1524    1.0000 </r>
       <r>   -2.0201    1.0000 </r>
       <r>   -2.0003    1.0000 </r>
       <r>   -1.8919    1.0000 </r>
       <r>   -1.8725    1.0000 </r>
       <r>   -1.8088    1.0000 </r>
       <r>   -1.7550    1.0000 </r>
       <r>   -1.6914    1.0000 </r>
       <r>   -1.6374    1.0000 </r>
       <r>   -1.5604    1.0000 </r>
       <r>   -1.5166    1.0000 </r>
       <r>   -1.4456    1.0000 </r>
       <r>   -1.2737    1.0025 </r>
       <r>   -1.1987    1.0097 </r>
       <r>   -1.1538    1.0179 </r>
       <r>   -1.0700    1.0347 </r>
       <r>   -1.0520    1.0354 </r>
       <r>   -1.0229    1.0303 </r>
       <r>   -0.9586    0.9728 </r>
       <r>   -0.9484    0.9557 </r>
       <r>   -0.8569    0.6896 </r>
       <r>   -0.8338    0.5971 </r>
       <r>   -0.7975    0.4441 </r>
       <r>   -0.7617    0.2992 </r>
       <r>   -0.7382    0.2144 </r>
       <r>   -0.6357   -0.0069 </r>
       <r>   -0.5605   -0.0354 </r>
       <r>   -0.4780   -0.0202 </r>
       <r>   -0.3646   -0.0035 </r>
       <r>   -0.2998   -0.0009 </r>
       <r>   -0.1780   -0.0000 </r>
       <r>    0.1819   -0.0000 </r>
       <r>    0.2624   -0.0000 </r>
       <r>    0.8184   -0.0000 </r>
       <r>    0.8444   -0.0000 </r>
       <r>    1.1002   -0.0000 </r>
       <r>    1.2846   -0.0000 </r>
       <r>    1.6218   -0.0000 </r>
       <r>    2.1410   -0.0000 </r>
       <r>    2.5233   -0.0000 </r>
       <r>    3.0130   -0.0000 </r>
       <r>    3.3669   -0.0000 </r>
      </set>
      <set comment="kpoint 5">
       <r>   -9.9831    1.0000 </r>
       <r>   -8.7149    1.0000 </r>
       <r>   -7.6542    1.0000 </r>
       <r>   -7.5310    1.0000 </r>
       <r>   -7.4400    1.0000 </r>
       <r>   -7.3616    1.0000 </r>
       <r>   -7.2439    1.0000 </r>
       <r>   -7.2249    1.0000 </r>
       <r>   -7.1769    1.0000 </r>
       <r>   -7.1089    1.0000 </r>
       <r>   -6.7518    1.0000 </r>
       <r>   -6.7302    1.0000 </r>
       <r>   -6.7185    1.0000 </r>
       <r>   -6.7127    1.0000 </r>
       <r>   -6.6518    1.0000 </r>
       <r>   -6.4847    1.0000 </r>
       <r>   -6.4206    1.0000 </r>
       <r>   -6.3642    1.0000 </r>
       <r>   -6.2966    1.0000 </r>
       <r>   -5.7348    1.0000 </r>
       <r>   -5.7290    1.0000 </r>
       <r>   -5.6276    1.0000 </r>
       <r>   -4.9611    1.0000 </r>
       <r>   -4.9098    1.0000 </r>
       <r>   -4.8473    1.0000 </r>
       <r>   -4.7287    1.0000 </r>
       <r>   -4.6654    1.0000 </r>
       <r>   -4.5885    1.0000 </r>
       <r>   -4.5762    1.0000 </r>
       <r>   -4.5389    1.0000 </r>
       <r>   -4.4756    1.0000 </r>
       <r>   -4.2083    1.0000 </r>
       <r>   -4.1720    1.0000 </r>
       <r>   -4.1431    1.0000 </r>
       <r>   -4.1064    1.0000 </r>
       <r>   -4.0305    1.0000 </r>
       <r>   -4.0101    1.0000 </r>
       <r>   -3.9772    1.0000 </r>
       <r>   -3.9284    1.0000 </r>
       <r>   -3.8764    1.0000 </r>
       <r>   -3.7838    1.0000 </r>
       <r>   -3.6541    1.0000 </r>
       <r>   -3.6042    1.0000 </r>
       <r>   -3.5527    1.0000 </r>
       <r>   -3.5187    1.0000 </r>
       <r>   -3.4665    1.0000 </r>
       <r>   -3.3043    1.0000 </r>
       <r>   -3.1309    1.0000 </r>
       <r>   -2.9560    1.0000 </r>
       <r>   -2.8079    1.0000 </r>
       <r>   -2.6935    1.0000 </r>
       <r>   -2.4746    1.0000 </r>
       <r>   -2.4348    1.0000 </r>
       <r>   -2.2833    1.0000 </r>
       <r>   -2.1669    1.0000 </r>
       <r>   -2.0195    1.0000 </r>
       <r>   -1.9982    1.0000 </r>
       <r>   -1.9176    1.0000 </r>
       <r>   -1.8473    1.0000 </r>
       <r>   -1.8139    1.0000 </r>
       <r>   -1.7670    1.0000 </r>
       <r>   -1.7048    1.0000 </r>
       <r>   -1.6111    1.0000 </r>
       <r>   -1.5796    1.0000 </r>
       <r>   -1.5133    1.0000 </r>
       <r>   -1.4360    1.0000 </r>
       <r>   -1.2743    1.0025 </r>
       <r>   -1.2097    1.0081 </r>
       <r>   -1.1401    1.0209 </r>
       <r>   -1.0806    1.0335 </r>
       <r>   -1.0333    1.0332 </r>
       <r>   -1.0175    1.0283 </r>
       <r>   -0.9650    0.9824 </r>
       <r>   -0.9418    0.9434 </r>
       <r>   -0.8775    0.7658 </r>
       <r>   -0.8320    0.5893 </r>
       <r>   -0.8056    0.4784 </r>
       <r>   -0.7582    0.2860 </r>
       <r>   -0.7261    0.1750 </r>
       <r>   -0.6439    0.0017 </r>
       <r>   -0.5428   -0.0337 </r>
       <r>   -0.4520   -0.0147 </r>
       <r>   -0.4055   -0.0073 </r>
       <r>   -0.2979   -0.0009 </r>
       <r>   -0.1850   -0.0000 </r>
       <r>    0.1855   -0.0000 </r>
       <r>    0.2710   -0.0000 </r>
       <r>    0.8112   -0.0000 </r>
       <r>    0.8466   -0.0000 </r>
       <r>    1.0993   -0.0000 </r>
       <r>    1.2865   -0.0000 </r>
       <r>    1.6212   -0.0000 </r>
       <r>    2.1422   -0.0000 </r>
       <r>    2.5228   -0.0000 </r>
       <r>    3.0128   -0.0000 </r>
       <r>    3.3669   -0.0000 </r>
      </set>
      <set comment="kpoint 6">
       <r>   -9.5295    1.0000 </r>
       <r>   -8.2790    1.0000 </r>
       <r>   -7.5390    1.0000 </r>
       <r>   -7.2290    1.0000 </r>
       <r>   -7.1221    1.0000 </r>
       <r>   -7.1093    1.0000 </r>
       <r>   -7.1007    1.0000 </r>
       <r>   -6.9064    1.0000 </r>
       <r>   -6.8749    1.0000 </r>
       <r>   -6.7991    1.0000 </r>
       <r>   -6.6704    1.0000 </r>
       <r>   -6.5100    1.0000 </r>
       <r>   -6.4905    1.0000 </r>
       <r>   -6.4516    1.0000 </r>
       <r>   -6.3398    1.0000 </r>
       <r>   -6.2850    1.0000 </r>
       <r>   -6.1249    1.0000 </r>
       <r>   -6.0373    1.0000 </r>
       <r>   -5.9162    1.0000 </r>
       <r>   -5.6162    1.0000 </r>
       <r>   -5.5732    1.0000 </r>
       <r>   -5.5097    1.0000 </r>
       <r>   -5.1027    1.0000 </r>
       <r>   -5.0470    1.0000 </r>
       <r>   -4.9460    1.0000 </r>
       <r>   -4.8455    1.0000 </r>
       <r>   -4.7991    1.0000 </r>
       <r>   -4.7205    1.0000 </r>
       <r>   -4.5245    1.0000 </r>
       <r>   -4.4815    1.0000 </r>
       <r>   -4.4316    1.0000 </r>
       <r>   -4.2847    1.0000 </r>
       <r>   -4.2682    1.0000 </r>
       <r>   -4.2448    1.0000 </r>
       <r>   -4.1324    1.0000 </r>
       <r>   -4.0795    1.0000 </r>
       <r>   -4.0025    1.0000 </r>
       <r>   -3.9386    1.0000 </r>
       <r>   -3.9047    1.0000 </r>
       <r>   -3.8635    1.0000 </r>
       <r>   -3.8234    1.0000 </r>
       <r>   -3.8169    1.0000 </r>
       <r>   -3.7881    1.0000 </r>
       <r>   -3.7753    1.0000 </r>
       <r>   -3.6325    1.0000 </r>
       <r>   -3.5308    1.0000 </r>
       <r>   -3.4567    1.0000 </r>
       <r>   -3.2267    1.0000 </r>
       <r>   -3.0768    1.0000 </r>
       <r>   -3.0005    1.0000 </r>
       <r>   -2.8893    1.0000 </r>
       <r>   -2.7828    1.0000 </r>
       <r>   -2.7351    1.0000 </r>
       <r>   -2.6790    1.0000 </r>
       <r>   -2.5996    1.0000 </r>
       <r>   -2.5883    1.0000 </r>
       <r>   -2.5310    1.0000 </r>
       <r>   -2.4768    1.0000 </r>
       <r>   -2.3908    1.0000 </r>
       <r>   -2.3248    1.0000 </r>
       <r>   -2.1847    1.0000 </r>
       <r>   -2.1021    1.0000 </r>
       <r>   -2.0598    1.0000 </r>
       <r>   -1.8955    1.0000 </r>
       <r>   -1.8524    1.0000 </r>
       <r>   -1.8184    1.0000 </r>
       <r>   -1.7155    1.0000 </r>
       <r>   -1.5995    1.0000 </r>
       <r>   -1.5466    1.0000 </r>
       <r>   -1.5240    1.0000 </r>
       <r>   -1.4600    1.0000 </r>
       <r>   -1.3880    1.0002 </r>
       <r>   -1.2770    1.0024 </r>
       <r>   -1.2654    1.0030 </r>
       <r>   -1.1982    1.0097 </r>
       <r>   -1.1146    1.0268 </r>
       <r>   -1.0184    1.0287 </r>
       <r>   -0.9811    1.0021 </r>
       <r>   -0.9157    0.8835 </r>
       <r>   -0.8117    0.5040 </r>
       <r>   -0.7536    0.2690 </r>
       <r>   -0.7314    0.1920 </r>
       <r>   -0.6552    0.0160 </r>
       <r>   -0.5457   -0.0341 </r>
       <r>   -0.4546   -0.0152 </r>
       <r>    0.3098   -0.0000 </r>
       <r>    0.3714   -0.0000 </r>
       <r>    0.5423   -0.0000 </r>
       <r>    0.9385   -0.0000 </r>
       <r>    1.6942   -0.0000 </r>
       <r>    1.9098   -0.0000 </r>
       <r>    1.9313   -0.0000 </r>
       <r>    2.2872   -0.0000 </r>
       <r>    2.6637   -0.0000 </r>
       <r>    3.2358   -0.0000 </r>
       <r>    3.9135   -0.0000 </r>
      </set>
      <set comment="kpoint 7">
       <r>   -9.5295    1.0000 </r>
       <r>   -8.2790    1.0000 </r>
       <r>   -7.5390    1.0000 </r>
       <r>   -7.2290    1.0000 </r>
       <r>   -7.1218    1.0000 </r>
       <r>   -7.1098    1.0000 </r>
       <r>   -7.1003    1.0000 </r>
       <r>   -6.9061    1.0000 </r>
       <r>   -6.8749    1.0000 </r>
       <r>   -6.7989    1.0000 </r>
       <r>   -6.6703    1.0000 </r>
       <r>   -6.5089    1.0000 </r>
       <r>   -6.4934    1.0000 </r>
       <r>   -6.4501    1.0000 </r>
       <r>   -6.3452    1.0000 </r>
       <r>   -6.2792    1.0000 </r>
       <r>   -6.1248    1.0000 </r>
       <r>   -6.0387    1.0000 </r>
       <r>   -5.9157    1.0000 </r>
       <r>   -5.6165    1.0000 </r>
       <r>   -5.5729    1.0000 </r>
       <r>   -5.5102    1.0000 </r>
       <r>   -5.1044    1.0000 </r>
       <r>   -5.0444    1.0000 </r>
       <r>   -4.9467    1.0000 </r>
       <r>   -4.8461    1.0000 </r>
       <r>   -4.7978    1.0000 </r>
       <r>   -4.7204    1.0000 </r>
       <r>   -4.5263    1.0000 </r>
       <r>   -4.4862    1.0000 </r>
       <r>   -4.4271    1.0000 </r>
       <r>   -4.2897    1.0000 </r>
       <r>   -4.2647    1.0000 </r>
       <r>   -4.2373    1.0000 </r>
       <r>   -4.1348    1.0000 </r>
       <r>   -4.0790    1.0000 </r>
       <r>   -4.0076    1.0000 </r>
       <r>   -3.9268    1.0000 </r>
       <r>   -3.9018    1.0000 </r>
       <r>   -3.8737    1.0000 </r>
       <r>   -3.8326    1.0000 </r>
       <r>   -3.8075    1.0000 </r>
       <r>   -3.7867    1.0000 </r>
       <r>   -3.7771    1.0000 </r>
       <r>   -3.6359    1.0000 </r>
       <r>   -3.5356    1.0000 </r>
       <r>   -3.4573    1.0000 </r>
       <r>   -3.2253    1.0000 </r>
       <r>   -3.0669    1.0000 </r>
       <r>   -2.9985    1.0000 </r>
       <r>   -2.8916    1.0000 </r>
       <r>   -2.7947    1.0000 </r>
       <r>   -2.7204    1.0000 </r>
       <r>   -2.6895    1.0000 </r>
       <r>   -2.6012    1.0000 </r>
       <r>   -2.5823    1.0000 </r>
       <r>   -2.5191    1.0000 </r>
       <r>   -2.4751    1.0000 </r>
       <r>   -2.3785    1.0000 </r>
       <r>   -2.3449    1.0000 </r>
       <r>   -2.1967    1.0000 </r>
       <r>   -2.1217    1.0000 </r>
       <r>   -2.0239    1.0000 </r>
       <r>   -1.9119    1.0000 </r>
       <r>   -1.8672    1.0000 </r>
       <r>   -1.8203    1.0000 </r>
       <r>   -1.6854    1.0000 </r>
       <r>   -1.6121    1.0000 </r>
       <r>   -1.5584    1.0000 </r>
       <r>   -1.5106    1.0000 </r>
       <r>   -1.4751    1.0000 </r>
       <r>   -1.3565    1.0004 </r>
       <r>   -1.2730    1.0026 </r>
       <r>   -1.2631    1.0031 </r>
       <r>   -1.2104    1.0080 </r>
       <r>   -1.1226    1.0250 </r>
       <r>   -1.0275    1.0318 </r>
       <r>   -0.9790    0.9999 </r>
       <r>   -0.9160    0.8842 </r>
       <r>   -0.8099    0.4964 </r>
       <r>   -0.7587    0.2881 </r>
       <r>   -0.7243    0.1696 </r>
       <r>   -0.6400   -0.0025 </r>
       <r>   -0.5551   -0.0350 </r>
       <r>   -0.4568   -0.0156 </r>
       <r>    0.3098   -0.0000 </r>
       <r>    0.3704   -0.0000 </r>
       <r>    0.5433   -0.0000 </r>
       <r>    0.9395   -0.0000 </r>
       <r>    1.6942   -0.0000 </r>
       <r>    1.8994   -0.0000 </r>
       <r>    1.9405   -0.0000 </r>
       <r>    2.2869   -0.0000 </r>
       <r>    2.6651   -0.0000 </r>
       <r>    3.2347   -0.0000 </r>
       <r>    3.9135   -0.0000 </r>
      </set>
      <set comment="kpoint 8">
       <r>   -9.5295    1.0000 </r>
       <r>   -8.2790    1.0000 </r>
       <r>   -7.5389    1.0000 </r>
       <r>   -7.2288    1.0000 </r>
       <r>   -7.1199    1.0000 </r>
       <r>   -7.1107    1.0000 </r>
       <r>   -7.1003    1.0000 </r>
       <r>   -6.9049    1.0000 </r>
       <r>   -6.8767    1.0000 </r>
       <r>   -6.7994    1.0000 </r>
       <r>   -6.6705    1.0000 </r>
       <r>   -6.5088    1.0000 </r>
       <r>   -6.4924    1.0000 </r>
       <r>   -6.4518    1.0000 </r>
       <r>   -6.3431    1.0000 </r>
       <r>   -6.2826    1.0000 </r>
       <r>   -6.1278    1.0000 </r>
       <r>   -6.0248    1.0000 </r>
       <r>   -5.9270    1.0000 </r>
       <r>   -5.6013    1.0000 </r>
       <r>   -5.5811    1.0000 </r>
       <r>   -5.5168    1.0000 </r>
       <r>   -5.0970    1.0000 </r>
       <r>   -5.0452    1.0000 </r>
       <r>   -4.9511    1.0000 </r>
       <r>   -4.8534    1.0000 </r>
       <r>   -4.7916    1.0000 </r>
       <r>   -4.7251    1.0000 </r>
       <r>   -4.5305    1.0000 </r>
       <r>   -4.4799    1.0000 </r>
       <r>   -4.4239    1.0000 </r>
       <r>   -4.2909    1.0000 </r>
       <r>   -4.2583    1.0000 </r>
       <r>   -4.2267    1.0000 </r>
       <r>   -4.1407    1.0000 </r>
       <r>   -4.0787    1.0000 </r>
       <r>   -4.0173    1.0000 </r>
       <r>   -3.9321    1.0000 </r>
       <r>   -3.8891    1.0000 </r>
       <r>   -3.8671    1.0000 </r>
       <r>   -3.8315    1.0000 </r>
       <r>   -3.8180    1.0000 </r>
       <r>   -3.7916    1.0000 </r>
       <r>   -3.7708    1.0000 </r>
       <r>   -3.6601    1.0000 </r>
       <r>   -3.5413    1.0000 </r>
       <r>   -3.4374    1.0000 </r>
       <r>   -3.2286    1.0000 </r>
       <r>   -3.0538    1.0000 </r>
       <r>   -3.0040    1.0000 </r>
       <r>   -2.8741    1.0000 </r>
       <r>   -2.8013    1.0000 </r>
       <r>   -2.7330    1.0000 </r>
       <r>   -2.6817    1.0000 </r>
       <r>   -2.6023    1.0000 </r>
       <r>   -2.5831    1.0000 </r>
       <r>   -2.5120    1.0000 </r>
       <r>   -2.4648    1.0000 </r>
       <r>   -2.4084    1.0000 </r>
       <r>   -2.3240    1.0000 </r>
       <r>   -2.2239    1.0000 </r>
       <r>   -2.1451    1.0000 </r>
       <r>   -1.9567    1.0000 </r>
       <r>   -1.9293    1.0000 </r>
       <r>   -1.8920    1.0000 </r>
       <r>   -1.8000    1.0000 </r>
       <r>   -1.6756    1.0000 </r>
       <r>   -1.6040    1.0000 </r>
       <r>   -1.5840    1.0000 </r>
       <r>   -1.5217    1.0000 </r>
       <r>   -1.4732    1.0000 </r>
       <r>   -1.3941    1.0001 </r>
       <r>   -1.2803    1.0022 </r>
       <r>   -1.2308    1.0057 </r>
       <r>   -1.1518    1.0183 </r>
       <r>   -1.1099    1.0278 </r>
       <r>   -1.0734    1.0344 </r>
       <r>   -0.9862    1.0073 </r>
       <r>   -0.8939    0.8204 </r>
       <r>   -0.8317    0.5884 </r>
       <r>   -0.7895    0.4108 </r>
       <r>   -0.7199    0.1561 </r>
       <r>   -0.6202   -0.0195 </r>
       <r>   -0.5035   -0.0260 </r>
       <r>   -0.4975   -0.0246 </r>
       <r>    0.3093   -0.0000 </r>
       <r>    0.3699   -0.0000 </r>
       <r>    0.5454   -0.0000 </r>
       <r>    0.9367   -0.0000 </r>
       <r>    1.7119   -0.0000 </r>
       <r>    1.8936   -0.0000 </r>
       <r>    1.9134   -0.0000 </r>
       <r>    2.3049   -0.0000 </r>
       <r>    2.6652   -0.0000 </r>
       <r>    3.2327   -0.0000 </r>
       <r>    3.9133   -0.0000 </r>
      </set>
      <set comment="kpoint 9">
       <r>   -8.8904    1.0000 </r>
       <r>   -7.9056    1.0000 </r>
       <r>   -7.7166    1.0000 </r>
       <r>   -7.1414    1.0000 </r>
       <r>   -6.7847    1.0000 </r>
       <r>   -6.7729    1.0000 </r>
       <r>   -6.6101    1.0000 </r>
       <r>   -6.5701    1.0000 </r>
       <r>   -6.5423    1.0000 </r>
       <r>   -6.5297    1.0000 </r>
       <r>   -6.4822    1.0000 </r>
       <r>   -6.2368    1.0000 </r>
       <r>   -6.1809    1.0000 </r>
       <r>   -6.0741    1.0000 </r>
       <r>   -6.0533    1.0000 </r>
       <r>   -5.9858    1.0000 </r>
       <r>   -5.8369    1.0000 </r>
       <r>   -5.6915    1.0000 </r>
       <r>   -5.5369    1.0000 </r>
       <r>   -5.4365    1.0000 </r>
       <r>   -5.3899    1.0000 </r>
       <r>   -5.3494    1.0000 </r>
       <r>   -5.2855    1.0000 </r>
       <r>   -5.2026    1.0000 </r>
       <r>   -5.0537    1.0000 </r>
       <r>   -5.0236    1.0000 </r>
       <r>   -4.9717    1.0000 </r>
       <r>   -4.7688    1.0000 </r>
       <r>   -4.7270    1.0000 </r>
       <r>   -4.6702    1.0000 </r>
       <r>   -4.6409    1.0000 </r>
       <r>   -4.5094    1.0000 </r>
       <r>   -4.4620    1.0000 </r>
       <r>   -4.4099    1.0000 </r>
       <r>   -4.3543    1.0000 </r>
       <r>   -4.2250    1.0000 </r>
       <r>   -4.1307    1.0000 </r>
       <r>   -4.0933    1.0000 </r>
       <r>   -3.9799    1.0000 </r>
       <r>   -3.9018    1.0000 </r>
       <r>   -3.8132    1.0000 </r>
       <r>   -3.7504    1.0000 </r>
       <r>   -3.7111    1.0000 </r>
       <r>   -3.6682    1.0000 </r>
       <r>   -3.6396    1.0000 </r>
       <r>   -3.6085    1.0000 </r>
       <r>   -3.5478    1.0000 </r>
       <r>   -3.4859    1.0000 </r>
       <r>   -3.3711    1.0000 </r>
       <r>   -3.3348    1.0000 </r>
       <r>   -3.2888    1.0000 </r>
       <r>   -3.2194    1.0000 </r>
       <r>   -3.1813    1.0000 </r>
       <r>   -3.0208    1.0000 </r>
       <r>   -3.0060    1.0000 </r>
       <r>   -2.9142    1.0000 </r>
       <r>   -2.8551    1.0000 </r>
       <r>   -2.7709    1.0000 </r>
       <r>   -2.7430    1.0000 </r>
       <r>   -2.5461    1.0000 </r>
       <r>   -2.4774    1.0000 </r>
       <r>   -2.3898    1.0000 </r>
       <r>   -2.3363    1.0000 </r>
       <r>   -2.2482    1.0000 </r>
       <r>   -2.2120    1.0000 </r>
       <r>   -2.1547    1.0000 </r>
       <r>   -2.0845    1.0000 </r>
       <r>   -2.0036    1.0000 </r>
       <r>   -1.9347    1.0000 </r>
       <r>   -1.8812    1.0000 </r>
       <r>   -1.8442    1.0000 </r>
       <r>   -1.7618    1.0000 </r>
       <r>   -1.6422    1.0000 </r>
       <r>   -1.4356    1.0000 </r>
       <r>   -1.3936    1.0001 </r>
       <r>   -1.3047    1.0013 </r>
       <r>   -1.2095    1.0082 </r>
       <r>   -1.0535    1.0354 </r>
       <r>   -0.9106    0.8697 </r>
       <r>   -0.8767    0.7631 </r>
       <r>   -0.8027    0.4662 </r>
       <r>   -0.7227    0.1645 </r>
       <r>   -0.6732    0.0444 </r>
       <r>   -0.5762   -0.0350 </r>
       <r>   -0.4743   -0.0193 </r>
       <r>   -0.2094   -0.0001 </r>
       <r>    0.6853   -0.0000 </r>
       <r>    1.0210   -0.0000 </r>
       <r>    1.0693   -0.0000 </r>
       <r>    1.7758   -0.0000 </r>
       <r>    1.9681   -0.0000 </r>
       <r>    2.1141   -0.0000 </r>
       <r>    2.4440   -0.0000 </r>
       <r>    3.0312   -0.0000 </r>
       <r>    3.5838   -0.0000 </r>
       <r>    4.0027   -0.0000 </r>
      </set>
      <set comment="kpoint 10">
       <r>   -8.8904    1.0000 </r>
       <r>   -7.9056    1.0000 </r>
       <r>   -7.7166    1.0000 </r>
       <r>   -7.1414    1.0000 </r>
       <r>   -6.7868    1.0000 </r>
       <r>   -6.7705    1.0000 </r>
       <r>   -6.6102    1.0000 </r>
       <r>   -6.5705    1.0000 </r>
       <r>   -6.5404    1.0000 </r>
       <r>   -6.5310    1.0000 </r>
       <r>   -6.4827    1.0000 </r>
       <r>   -6.2372    1.0000 </r>
       <r>   -6.1808    1.0000 </r>
       <r>   -6.0716    1.0000 </r>
       <r>   -6.0552    1.0000 </r>
       <r>   -5.9860    1.0000 </r>
       <r>   -5.8376    1.0000 </r>
       <r>   -5.6914    1.0000 </r>
       <r>   -5.5378    1.0000 </r>
       <r>   -5.4342    1.0000 </r>
       <r>   -5.3911    1.0000 </r>
       <r>   -5.3513    1.0000 </r>
       <r>   -5.2831    1.0000 </r>
       <r>   -5.2012    1.0000 </r>
       <r>   -5.0594    1.0000 </r>
       <r>   -5.0230    1.0000 </r>
       <r>   -4.9715    1.0000 </r>
       <r>   -4.7703    1.0000 </r>
       <r>   -4.7184    1.0000 </r>
       <r>   -4.6724    1.0000 </r>
       <r>   -4.6410    1.0000 </r>
       <r>   -4.5074    1.0000 </r>
       <r>   -4.4578    1.0000 </r>
       <r>   -4.4275    1.0000 </r>
       <r>   -4.3474    1.0000 </r>
       <r>   -4.2220    1.0000 </r>
       <r>   -4.1320    1.0000 </r>
       <r>   -4.0922    1.0000 </r>
       <r>   -3.9793    1.0000 </r>
       <r>   -3.9001    1.0000 </r>
       <r>   -3.7918    1.0000 </r>
       <r>   -3.7751    1.0000 </r>
       <r>   -3.7131    1.0000 </r>
       <r>   -3.6790    1.0000 </r>
       <r>   -3.6396    1.0000 </r>
       <r>   -3.5870    1.0000 </r>
       <r>   -3.5517    1.0000 </r>
       <r>   -3.4961    1.0000 </r>
       <r>   -3.3764    1.0000 </r>
       <r>   -3.3190    1.0000 </r>
       <r>   -3.2801    1.0000 </r>
       <r>   -3.2304    1.0000 </r>
       <r>   -3.1835    1.0000 </r>
       <r>   -3.0325    1.0000 </r>
       <r>   -2.9940    1.0000 </r>
       <r>   -2.9129    1.0000 </r>
       <r>   -2.8451    1.0000 </r>
       <r>   -2.7839    1.0000 </r>
       <r>   -2.7400    1.0000 </r>
       <r>   -2.5373    1.0000 </r>
       <r>   -2.4841    1.0000 </r>
       <r>   -2.3881    1.0000 </r>
       <r>   -2.3424    1.0000 </r>
       <r>   -2.2789    1.0000 </r>
       <r>   -2.1803    1.0000 </r>
       <r>   -2.1534    1.0000 </r>
       <r>   -2.1036    1.0000 </r>
       <r>   -1.9660    1.0000 </r>
       <r>   -1.9313    1.0000 </r>
       <r>   -1.8806    1.0000 </r>
       <r>   -1.8668    1.0000 </r>
       <r>   -1.7750    1.0000 </r>
       <r>   -1.6372    1.0000 </r>
       <r>   -1.4269    1.0001 </r>
       <r>   -1.3909    1.0002 </r>
       <r>   -1.3086    1.0012 </r>
       <r>   -1.2077    1.0084 </r>
       <r>   -1.0521    1.0354 </r>
       <r>   -0.9339    0.9271 </r>
       <r>   -0.8445    0.6405 </r>
       <r>   -0.8021    0.4634 </r>
       <r>   -0.7171    0.1479 </r>
       <r>   -0.7045    0.1132 </r>
       <r>   -0.5649   -0.0355 </r>
       <r>   -0.4735   -0.0192 </r>
       <r>   -0.2094   -0.0001 </r>
       <r>    0.6852   -0.0000 </r>
       <r>    1.0152   -0.0000 </r>
       <r>    1.0770   -0.0000 </r>
       <r>    1.7753   -0.0000 </r>
       <r>    1.9639   -0.0000 </r>
       <r>    2.1169   -0.0000 </r>
       <r>    2.4443   -0.0000 </r>
       <r>    3.0319   -0.0000 </r>
       <r>    3.5831   -0.0000 </r>
       <r>    4.0023   -0.0000 </r>
      </set>
      <set comment="kpoint 11">
       <r>   -8.8903    1.0000 </r>
       <r>   -7.9053    1.0000 </r>
       <r>   -7.7167    1.0000 </r>
       <r>   -7.1420    1.0000 </r>
       <r>   -6.7840    1.0000 </r>
       <r>   -6.7700    1.0000 </r>
       <r>   -6.6031    1.0000 </r>
       <r>   -6.5615    1.0000 </r>
       <r>   -6.5511    1.0000 </r>
       <r>   -6.5396    1.0000 </r>
       <r>   -6.4823    1.0000 </r>
       <r>   -6.2374    1.0000 </r>
       <r>   -6.1800    1.0000 </r>
       <r>   -6.0758    1.0000 </r>
       <r>   -6.0547    1.0000 </r>
       <r>   -5.9842    1.0000 </r>
       <r>   -5.8356    1.0000 </r>
       <r>   -5.6846    1.0000 </r>
       <r>   -5.5497    1.0000 </r>
       <r>   -5.4417    1.0000 </r>
       <r>   -5.3816    1.0000 </r>
       <r>   -5.3477    1.0000 </r>
       <r>   -5.2996    1.0000 </r>
       <r>   -5.1815    1.0000 </r>
       <r>   -5.0504    1.0000 </r>
       <r>   -5.0290    1.0000 </r>
       <r>   -4.9757    1.0000 </r>
       <r>   -4.7750    1.0000 </r>
       <r>   -4.7148    1.0000 </r>
       <r>   -4.6775    1.0000 </r>
       <r>   -4.6517    1.0000 </r>
       <r>   -4.5136    1.0000 </r>
       <r>   -4.4537    1.0000 </r>
       <r>   -4.4038    1.0000 </r>
       <r>   -4.3404    1.0000 </r>
       <r>   -4.2312    1.0000 </r>
       <r>   -4.1402    1.0000 </r>
       <r>   -4.0800    1.0000 </r>
       <r>   -3.9772    1.0000 </r>
       <r>   -3.9062    1.0000 </r>
       <r>   -3.8036    1.0000 </r>
       <r>   -3.7668    1.0000 </r>
       <r>   -3.7232    1.0000 </r>
       <r>   -3.7003    1.0000 </r>
       <r>   -3.6198    1.0000 </r>
       <r>   -3.5919    1.0000 </r>
       <r>   -3.5512    1.0000 </r>
       <r>   -3.4767    1.0000 </r>
       <r>   -3.3683    1.0000 </r>
       <r>   -3.3322    1.0000 </r>
       <r>   -3.2999    1.0000 </r>
       <r>   -3.2226    1.0000 </r>
       <r>   -3.1619    1.0000 </r>
       <r>   -3.0247    1.0000 </r>
       <r>   -2.9741    1.0000 </r>
       <r>   -2.9449    1.0000 </r>
       <r>   -2.8634    1.0000 </r>
       <r>   -2.7666    1.0000 </r>
       <r>   -2.7506    1.0000 </r>
       <r>   -2.5403    1.0000 </r>
       <r>   -2.4517    1.0000 </r>
       <r>   -2.3821    1.0000 </r>
       <r>   -2.3498    1.0000 </r>
       <r>   -2.2846    1.0000 </r>
       <r>   -2.2390    1.0000 </r>
       <r>   -2.1451    1.0000 </r>
       <r>   -2.0546    1.0000 </r>
       <r>   -1.9689    1.0000 </r>
       <r>   -1.9332    1.0000 </r>
       <r>   -1.8844    1.0000 </r>
       <r>   -1.8619    1.0000 </r>
       <r>   -1.7974    1.0000 </r>
       <r>   -1.6556    1.0000 </r>
       <r>   -1.4750    1.0000 </r>
       <r>   -1.3094    1.0012 </r>
       <r>   -1.2365    1.0052 </r>
       <r>   -1.2093    1.0082 </r>
       <r>   -1.1363    1.0218 </r>
       <r>   -0.9387    0.9372 </r>
       <r>   -0.8344    0.5992 </r>
       <r>   -0.7893    0.4098 </r>
       <r>   -0.7717    0.3383 </r>
       <r>   -0.6760    0.0497 </r>
       <r>   -0.5226   -0.0302 </r>
       <r>   -0.4977   -0.0247 </r>
       <r>   -0.2091   -0.0001 </r>
       <r>    0.6860   -0.0000 </r>
       <r>    1.0231   -0.0000 </r>
       <r>    1.0662   -0.0000 </r>
       <r>    1.8065   -0.0000 </r>
       <r>    1.9585   -0.0000 </r>
       <r>    2.0620   -0.0000 </r>
       <r>    2.4774   -0.0000 </r>
       <r>    3.0338   -0.0000 </r>
       <r>    3.5764   -0.0000 </r>
       <r>    4.0052   -0.0000 </r>
      </set>
      <set comment="kpoint 12">
       <r>   -8.5400    1.0000 </r>
       <r>   -8.1997    1.0000 </r>
       <r>   -7.4621    1.0000 </r>
       <r>   -7.2540    1.0000 </r>
       <r>   -6.6840    1.0000 </r>
       <r>   -6.6659    1.0000 </r>
       <r>   -6.5396    1.0000 </r>
       <r>   -6.4843    1.0000 </r>
       <r>   -6.4387    1.0000 </r>
       <r>   -6.3640    1.0000 </r>
       <r>   -6.3285    1.0000 </r>
       <r>   -6.2041    1.0000 </r>
       <r>   -6.1403    1.0000 </r>
       <r>   -6.0262    1.0000 </r>
       <r>   -5.8840    1.0000 </r>
       <r>   -5.7771    1.0000 </r>
       <r>   -5.6943    1.0000 </r>
       <r>   -5.6491    1.0000 </r>
       <r>   -5.5703    1.0000 </r>
       <r>   -5.4840    1.0000 </r>
       <r>   -5.3572    1.0000 </r>
       <r>   -5.2702    1.0000 </r>
       <r>   -5.2263    1.0000 </r>
       <r>   -5.2097    1.0000 </r>
       <r>   -5.1186    1.0000 </r>
       <r>   -5.0452    1.0000 </r>
       <r>   -5.0178    1.0000 </r>
       <r>   -4.9199    1.0000 </r>
       <r>   -4.7829    1.0000 </r>
       <r>   -4.6953    1.0000 </r>
       <r>   -4.6449    1.0000 </r>
       <r>   -4.5718    1.0000 </r>
       <r>   -4.5554    1.0000 </r>
       <r>   -4.4874    1.0000 </r>
       <r>   -4.4107    1.0000 </r>
       <r>   -4.2675    1.0000 </r>
       <r>   -4.1202    1.0000 </r>
       <r>   -4.0817    1.0000 </r>
       <r>   -4.0523    1.0000 </r>
       <r>   -3.9686    1.0000 </r>
       <r>   -3.8756    1.0000 </r>
       <r>   -3.8367    1.0000 </r>
       <r>   -3.7736    1.0000 </r>
       <r>   -3.6897    1.0000 </r>
       <r>   -3.6564    1.0000 </r>
       <r>   -3.6443    1.0000 </r>
       <r>   -3.6229    1.0000 </r>
       <r>   -3.5771    1.0000 </r>
       <r>   -3.5557    1.0000 </r>
       <r>   -3.4604    1.0000 </r>
       <r>   -3.3801    1.0000 </r>
       <r>   -3.3316    1.0000 </r>
       <r>   -3.1350    1.0000 </r>
       <r>   -3.0655    1.0000 </r>
       <r>   -2.9444    1.0000 </r>
       <r>   -2.9162    1.0000 </r>
       <r>   -2.8540    1.0000 </r>
       <r>   -2.7967    1.0000 </r>
       <r>   -2.7237    1.0000 </r>
       <r>   -2.6388    1.0000 </r>
       <r>   -2.5964    1.0000 </r>
       <r>   -2.4844    1.0000 </r>
       <r>   -2.3472    1.0000 </r>
       <r>   -2.3315    1.0000 </r>
       <r>   -2.2737    1.0000 </r>
       <r>   -2.2424    1.0000 </r>
       <r>   -2.1523    1.0000 </r>
       <r>   -2.0624    1.0000 </r>
       <r>   -2.0171    1.0000 </r>
       <r>   -1.9822    1.0000 </r>
       <r>   -1.9522    1.0000 </r>
       <r>   -1.8577    1.0000 </r>
       <r>   -1.7846    1.0000 </r>
       <r>   -1.5985    1.0000 </r>
       <r>   -1.4519    1.0000 </r>
       <r>   -1.3344    1.0007 </r>
       <r>   -1.2334    1.0055 </r>
       <r>   -1.0583    1.0354 </r>
       <r>   -0.9112    0.8714 </r>
       <r>   -0.8262    0.5652 </r>
       <r>   -0.7664    0.3176 </r>
       <r>   -0.6974    0.0956 </r>
       <r>   -0.6331   -0.0093 </r>
       <r>   -0.5438   -0.0339 </r>
       <r>   -0.4810   -0.0208 </r>
       <r>   -0.4056   -0.0074 </r>
       <r>    0.7124   -0.0000 </r>
       <r>    1.0938   -0.0000 </r>
       <r>    1.3364   -0.0000 </r>
       <r>    1.6591   -0.0000 </r>
       <r>    1.7873   -0.0000 </r>
       <r>    2.1494   -0.0000 </r>
       <r>    2.4738   -0.0000 </r>
       <r>    3.5859   -0.0000 </r>
       <r>    3.6297   -0.0000 </r>
       <r>    4.0133   -0.0000 </r>
      </set>
      <set comment="kpoint 13">
       <r>   -8.5400    1.0000 </r>
       <r>   -8.1997    1.0000 </r>
       <r>   -7.4621    1.0000 </r>
       <r>   -7.2540    1.0000 </r>
       <r>   -6.6824    1.0000 </r>
       <r>   -6.6678    1.0000 </r>
       <r>   -6.5395    1.0000 </r>
       <r>   -6.4842    1.0000 </r>
       <r>   -6.4391    1.0000 </r>
       <r>   -6.3627    1.0000 </r>
       <r>   -6.3290    1.0000 </r>
       <r>   -6.2041    1.0000 </r>
       <r>   -6.1410    1.0000 </r>
       <r>   -6.0260    1.0000 </r>
       <r>   -5.8845    1.0000 </r>
       <r>   -5.7753    1.0000 </r>
       <r>   -5.6935    1.0000 </r>
       <r>   -5.6498    1.0000 </r>
[...]
       <r>   -4.4643    1.0000 </r>
       <r>   -4.4278    1.0000 </r>
       <r>   -4.3156    1.0000 </r>
       <r>   -4.2385    1.0000 </r>
       <r>   -4.1474    1.0000 </r>
       <r>   -4.1130    1.0000 </r>
       <r>   -4.0874    1.0000 </r>
       <r>   -4.0231    1.0000 </r>
       <r>   -3.9375    1.0000 </r>
       <r>   -3.8380    1.0000 </r>
       <r>   -3.7388    1.0000 </r>
       <r>   -3.6938    1.0000 </r>
       <r>   -3.6698    1.0000 </r>
       <r>   -3.6292    1.0000 </r>
       <r>   -3.5961    1.0000 </r>
       <r>   -3.5859    1.0000 </r>
       <r>   -3.4789    1.0000 </r>
       <r>   -3.3650    1.0000 </r>
       <r>   -3.2837    1.0000 </r>
       <r>   -3.1341    1.0000 </r>
       <r>   -2.9892    1.0000 </r>
       <r>   -2.9368    1.0000 </r>
       <r>   -2.9000    1.0000 </r>
       <r>   -2.8795    1.0000 </r>
       <r>   -2.8195    1.0000 </r>
       <r>   -2.6912    1.0000 </r>
       <r>   -2.5917    1.0000 </r>
       <r>   -2.5255    1.0000 </r>
       <r>   -2.4884    1.0000 </r>
       <r>   -2.4032    1.0000 </r>
       <r>   -2.3269    1.0000 </r>
       <r>   -2.2156    1.0000 </r>
       <r>   -2.1704    1.0000 </r>
       <r>   -2.1077    1.0000 </r>
       <r>   -2.0518    1.0000 </r>
       <r>   -1.9850    1.0000 </r>
       <r>   -1.9172    1.0000 </r>
       <r>   -1.8651    1.0000 </r>
       <r>   -1.7966    1.0000 </r>
       <r>   -1.7053    1.0000 </r>
       <r>   -1.5926    1.0000 </r>
       <r>   -1.4368    1.0000 </r>
       <r>   -1.2726    1.0026 </r>
       <r>   -1.2529    1.0038 </r>
       <r>   -1.1582    1.0170 </r>
       <r>   -0.9888    1.0097 </r>
       <r>   -0.8955    0.8253 </r>
       <r>   -0.8532    0.6753 </r>
       <r>   -0.7838    0.3872 </r>
       <r>   -0.6409   -0.0016 </r>
       <r>   -0.6081   -0.0264 </r>
       <r>   -0.4443   -0.0132 </r>
       <r>   -0.3817   -0.0049 </r>
       <r>    0.2038   -0.0000 </r>
       <r>    0.5028   -0.0000 </r>
       <r>    1.4454   -0.0000 </r>
       <r>    1.5527   -0.0000 </r>
       <r>    1.5825   -0.0000 </r>
       <r>    2.3502   -0.0000 </r>
       <r>    3.1666   -0.0000 </r>
       <r>    3.4234   -0.0000 </r>
       <r>    3.9445   -0.0000 </r>
       <r>    3.9898   -0.0000 </r>
      </set>
     </set>
    </set>
   </array>
  </eigenvalues>
  <separator name="orbital magnetization" >
   <v name="MAGDIPOLOUT">      0.00000000      0.00000000      0.00000000</v>
  </separator>
  <dos>
   <i name="efermi">     -0.81072291 </i>
   <total>
    <array>
     <dimension dim="1">gridpoints</dimension>
     <dimension dim="2">spin</dimension>
     <field>energy</field>
     <field>total</field>
     <field>integrated</field>
     <set>
      <set comment="spin 1">
       <r>   -12.1871     0.0000     0.0000 </r>
       <r>   -12.1249     0.0000     0.0000 </r>
       <r>   -12.0626     0.0000     0.0000 </r>
       <r>   -12.0003     0.0000     0.0000 </r>
       <r>   -11.9380     0.0000     0.0000 </r>
       <r>   -11.8758     0.0000     0.0000 </r>
       <r>   -11.8135    -0.0000    -0.0000 </r>
       <r>   -11.7512    -0.0000    -0.0000 </r>
       <r>   -11.6889    -0.0000    -0.0000 </r>
       <r>   -11.6267    -0.0000    -0.0000 </r>
       <r>   -11.5644    -0.0000    -0.0000 </r>
       <r>   -11.5021    -0.0000    -0.0000 </r>
       <r>   -11.4398    -0.0000    -0.0000 </r>
       <r>   -11.3775    -0.0000    -0.0000 </r>
       <r>   -11.3153    -0.0000    -0.0000 </r>
       <r>   -11.2530    -0.0000    -0.0000 </r>
       <r>   -11.1907    -0.0000    -0.0000 </r>
       <r>   -11.1284    -0.0000    -0.0000 </r>
       <r>   -11.0662    -0.0000    -0.0000 </r>
       <r>   -11.0039    -0.0000    -0.0000 </r>
       <r>   -10.9416    -0.0000    -0.0000 </r>
       <r>   -10.8793    -0.0000    -0.0000 </r>
       <r>   -10.8171    -0.0000    -0.0000 </r>
       <r>   -10.7548    -0.0002    -0.0000 </r>
       <r>   -10.6925    -0.0010    -0.0001 </r>
       <r>   -10.6302    -0.0035    -0.0003 </r>
       <r>   -10.5679    -0.0097    -0.0009 </r>
       <r>   -10.5057    -0.0204    -0.0022 </r>
       <r>   -10.4434    -0.0284    -0.0039 </r>
       <r>   -10.3811    -0.0124    -0.0047 </r>
       <r>   -10.3188     0.0580    -0.0011 </r>
       <r>   -10.2566     0.1982     0.0112 </r>
       <r>   -10.1943     0.3888     0.0355 </r>
       <r>   -10.1320     0.5864     0.0720 </r>
       <r>   -10.0697     0.7558     0.1190 </r>
       <r>   -10.0075     0.8777     0.1737 </r>
       <r>    -9.9452     0.9344     0.2319 </r>
       <r>    -9.8829     0.9134     0.2888 </r>
       <r>    -9.8206     0.8341     0.3407 </r>
       <r>    -9.7583     0.7576     0.3879 </r>
       <r>    -9.6961     0.7597     0.4352 </r>
       <r>    -9.6338     0.8691     0.4893 </r>
       <r>    -9.5715     1.0197     0.5529 </r>
       <r>    -9.5092     1.0950     0.6210 </r>
       <r>    -9.4470     1.0428     0.6860 </r>
       <r>    -9.3847     0.9188     0.7432 </r>
       <r>    -9.3224     0.8073     0.7935 </r>
       <r>    -9.2601     0.7435     0.8398 </r>
       <r>    -9.1979     0.7365     0.8856 </r>
       <r>    -9.1356     0.8237     0.9369 </r>
       <r>    -9.0733     1.0403     1.0017 </r>
       <r>    -9.0110     1.3392     1.0851 </r>
       <r>    -8.9487     1.6004     1.1848 </r>
       <r>    -8.8865     1.7459     1.2935 </r>
       <r>    -8.8242     1.8063     1.4060 </r>
       <r>    -8.7619     1.8441     1.5209 </r>
       <r>    -8.6996     1.8553     1.6364 </r>
       <r>    -8.6374     1.8014     1.7486 </r>
       <r>    -8.5751     1.7200     1.8557 </r>
       <r>    -8.5128     1.7415     1.9642 </r>
       <r>    -8.4505     1.9712     2.0869 </r>
       <r>    -8.3883     2.3558     2.2336 </r>
       <r>    -8.3260     2.6803     2.4006 </r>
       <r>    -8.2637     2.7406     2.5712 </r>
       <r>    -8.2014     2.5398     2.7294 </r>
       <r>    -8.1391     2.2704     2.8708 </r>
       <r>    -8.0769     2.1012     3.0016 </r>
       <r>    -8.0146     2.0613     3.1300 </r>
       <r>    -7.9523     2.1680     3.2650 </r>
       <r>    -7.8900     2.5586     3.4244 </r>
       <r>    -7.8278     3.3566     3.6334 </r>
       <r>    -7.7655     4.4134     3.9083 </r>
       <r>    -7.7032     5.3401     4.2408 </r>
       <r>    -7.6409     5.9085     4.6088 </r>
       <r>    -7.5787     6.3294     5.0030 </r>
       <r>    -7.5164     7.0115     5.4396 </r>
       <r>    -7.4541     8.1350     5.9462 </r>
       <r>    -7.3918     9.5958     6.5438 </r>
       <r>    -7.3295    11.2087     7.2419 </r>
       <r>    -7.2673    12.7327     8.0348 </r>
       <r>    -7.2050    13.7973     8.8941 </r>
       <r>    -7.1427    14.0612     9.7698 </r>
       <r>    -7.0804    13.5143    10.6114 </r>
       <r>    -7.0182    12.6106    11.3968 </r>
       <r>    -6.9559    12.1091    12.1509 </r>
       <r>    -6.8936    12.6879    12.9410 </r>
       <r>    -6.8313    14.5361    13.8463 </r>
       <r>    -6.7691    17.2266    14.9191 </r>
       <r>    -6.7068    20.0161    16.1656 </r>
       <r>    -6.6445    22.3163    17.5554 </r>
       <r>    -6.5822    23.8728    19.0422 </r>
       <r>    -6.5199    24.5741    20.5726 </r>
       <r>    -6.4577    24.3598    22.0896 </r>
       <r>    -6.3954    23.4725    23.5514 </r>
       <r>    -6.3331    22.5389    24.9551 </r>
       <r>    -6.2708    22.0676    26.3294 </r>
       <r>    -6.2086    21.8894    27.6926 </r>
       <r>    -6.1463    21.3021    29.0192 </r>
       <r>    -6.0840    19.8040    30.2525 </r>
       <r>    -6.0217    17.6218    31.3500 </r>
       <r>    -5.9595    15.5493    32.3183 </r>
       <r>    -5.8972    14.3650    33.2129 </r>
       <r>    -5.8349    14.4051    34.1100 </r>
       <r>    -5.7726    15.5310    35.0772 </r>
       <r>    -5.7103    17.2820    36.1535 </r>
       <r>    -5.6481    19.0368    37.3391 </r>
       <r>    -5.5858    20.2287    38.5988 </r>
       <r>    -5.5235    20.5753    39.8802 </r>
       <r>    -5.4612    20.1692    41.1363 </r>
       <r>    -5.3990    19.4137    42.3453 </r>
       <r>    -5.3367    18.8532    43.5194 </r>
       <r>    -5.2744    18.8728    44.6948 </r>
       <r>    -5.2121    19.4289    45.9047 </r>
       <r>    -5.1499    20.1333    47.1586 </r>
       <r>    -5.0876    20.6347    48.4437 </r>
       <r>    -5.0253    20.8626    49.7429 </r>
       <r>    -4.9630    20.9581    51.0481 </r>
       <r>    -4.9007    21.1110    52.3628 </r>
       <r>    -4.8385    21.4914    53.7013 </r>
       <r>    -4.7762    22.2625    55.0877 </r>
       <r>    -4.7139    23.5683    56.5555 </r>
       <r>    -4.6516    25.3835    58.1363 </r>
       <r>    -4.5894    27.2781    59.8351 </r>
       <r>    -4.5271    28.4424    61.6064 </r>
       <r>    -4.4648    28.2525    63.3658 </r>
       <r>    -4.4025    27.0139    65.0482 </r>
       <r>    -4.3403    25.9942    66.6670 </r>
       <r>    -4.2780    26.4221    68.3125 </r>
       <r>    -4.2157    28.3818    70.0800 </r>
       <r>    -4.1534    30.8002    71.9982 </r>
       <r>    -4.0911    32.4931    74.0217 </r>
       <r>    -4.0289    33.1013    76.0832 </r>
       <r>    -3.9666    33.0895    78.1439 </r>
       <r>    -3.9043    33.0977    80.2051 </r>
       <r>    -3.8420    33.4165    82.2862 </r>
       <r>    -3.7798    33.9295    84.3992 </r>
       <r>    -3.7175    34.2763    86.5338 </r>
       <r>    -3.6552    33.9585    88.6487 </r>
       <r>    -3.5929    32.4987    90.6726 </r>
       <r>    -3.5307    29.7907    92.5279 </r>
       <r>    -3.4684    26.3201    94.1670 </r>
       <r>    -3.4061    22.8899    95.5925 </r>
       <r>    -3.3438    20.1095    96.8449 </r>
       <r>    -3.2815    18.2008    97.9784 </r>
       <r>    -3.2193    17.2232    99.0510 </r>
       <r>    -3.1570    17.3335   100.1304 </r>
       <r>    -3.0947    18.7414   101.2976 </r>
       <r>    -3.0324    21.3771   102.6289 </r>
       <r>    -2.9702    24.5993   104.1609 </r>
       <r>    -2.9079    27.3233   105.8625 </r>
       <r>    -2.8456    28.5747   107.6420 </r>
       <r>    -2.7833    28.0326   109.3878 </r>
       <r>    -2.7211    26.1649   111.0173 </r>
       <r>    -2.6588    23.9332   112.5077 </r>
       <r>    -2.5965    22.2658   113.8944 </r>
       <r>    -2.5342    21.6044   115.2398 </r>
       <r>    -2.4719    21.8256   116.5991 </r>
       <r>    -2.4097    22.4943   118.0000 </r>
       <r>    -2.3474    23.1383   119.4409 </r>
       <r>    -2.2851    23.4609   120.9020 </r>
       <r>    -2.2228    23.5223   122.3669 </r>
       <r>    -2.1606    23.6928   123.8424 </r>
       <r>    -2.0983    24.3237   125.3572 </r>
       <r>    -2.0360    25.4773   126.9439 </r>
       <r>    -1.9737    26.8835   128.6181 </r>
       <r>    -1.9115    27.9865   130.3610 </r>
       <r>    -1.8492    28.1702   132.1153 </r>
       <r>    -1.7869    27.2534   133.8126 </r>
       <r>    -1.7246    25.7472   135.4161 </r>
       <r>    -1.6624    24.3844   136.9346 </r>
       <r>    -1.6001    23.4330   138.3940 </r>
       <r>    -1.5378    22.6916   139.8071 </r>
       <r>    -1.4755    22.0886   141.1828 </r>
       <r>    -1.4132    21.9707   142.5510 </r>
       <r>    -1.3510    22.6887   143.9640 </r>
       <r>    -1.2887    24.1094   145.4655 </r>
       <r>    -1.2264    25.7644   147.0700 </r>
       <r>    -1.1641    27.4024   148.7765 </r>
       <r>    -1.1019    29.1073   150.5892 </r>
       <r>    -1.0396    30.8613   152.5112 </r>
       <r>    -0.9773    32.3206   154.5240 </r>
       <r>    -0.9150    33.1160   156.5864 </r>
       <r>    -0.8528    33.0567   158.6450 </r>
       <r>    -0.7905    31.9494   160.6347 </r>
       <r>    -0.7282    29.6167   162.4792 </r>
       <r>    -0.6659    26.3181   164.1182 </r>
       <r>    -0.6036    22.8153   165.5391 </r>
       <r>    -0.5414    19.7355   166.7681 </r>
       <r>    -0.4791    17.0618   167.8307 </r>
       <r>    -0.4168    14.4466   168.7304 </r>
       <r>    -0.3545    11.8206   169.4665 </r>
       <r>    -0.2923     9.4777   170.0568 </r>
       <r>    -0.2300     7.7166   170.5373 </r>
       <r>    -0.1677     6.6376   170.9507 </r>
       <r>    -0.1054     6.2093   171.3374 </r>
       <r>    -0.0432     6.2584   171.7271 </r>
       <r>     0.0191     6.3762   172.1242 </r>
       <r>     0.0814     6.1194   172.5053 </r>
       <r>     0.1437     5.4531   172.8449 </r>
       <r>     0.2060     4.8260   173.1455 </r>
       <r>     0.2682     4.6579   173.4356 </r>
       <r>     0.3305     4.8432   173.7372 </r>
       <r>     0.3928     4.8868   174.0415 </r>
       <r>     0.4551     4.4853   174.3208 </r>
       <r>     0.5173     3.8719   174.5620 </r>
       <r>     0.5796     3.5849   174.7852 </r>
       <r>     0.6419     3.9705   175.0325 </r>
       <r>     0.7042     4.9246   175.3392 </r>
       <r>     0.7664     6.0249   175.7144 </r>
       <r>     0.8287     6.8135   176.1387 </r>
       <r>     0.8910     7.0076   176.5751 </r>
       <r>     0.9533     6.6053   176.9865 </r>
       <r>     1.0156     5.8572   177.3513 </r>
       <r>     1.0778     5.0761   177.6674 </r>
       <r>     1.1401     4.4437   177.9441 </r>
       <r>     1.2024     3.9990   178.1932 </r>
       <r>     1.2647     3.7519   178.4268 </r>
       <r>     1.3269     3.7389   178.6597 </r>
       <r>     1.3892     3.9727   178.9071 </r>
       <r>     1.4515     4.3723   179.1794 </r>
       <r>     1.5138     4.7908   179.4777 </r>
       <r>     1.5760     5.1483   179.7984 </r>
       <r>     1.6383     5.5022   180.1410 </r>
       <r>     1.7006     5.8935   180.5080 </r>
       <r>     1.7629     6.1361   180.8902 </r>
       <r>     1.8252     5.9139   181.2585 </r>
       <r>     1.8874     5.1827   181.5812 </r>
       <r>     1.9497     4.3772   181.8538 </r>
       <r>     2.0120     4.0913   182.1086 </r>
       <r>     2.0743     4.5388   182.3913 </r>
       <r>     2.1365     5.3517   182.7246 </r>
       <r>     2.1988     5.9145   183.0929 </r>
       <r>     2.2611     5.9101   183.4610 </r>
       <r>     2.3234     5.5428   183.8062 </r>
       <r>     2.3856     5.2191   184.1312 </r>
       <r>     2.4479     5.0519   184.4458 </r>
       <r>     2.5102     4.7581   184.7421 </r>
       <r>     2.5725     4.0749   184.9959 </r>
       <r>     2.6348     3.2047   185.1955 </r>
       <r>     2.6970     2.7592   185.3673 </r>
       <r>     2.7593     3.2476   185.5696 </r>
       <r>     2.8216     4.5935   185.8556 </r>
       <r>     2.8839     6.0909   186.2350 </r>
       <r>     2.9461     6.8589   186.6621 </r>
       <r>     3.0084     6.4727   187.0652 </r>
       <r>     3.0707     5.2474   187.3920 </r>
       <r>     3.1330     3.9299   187.6368 </r>
       <r>     3.1952     3.1351   187.8320 </r>
       <r>     3.2575     3.0271   188.0205 </r>
       <r>     3.3198     3.3791   188.2310 </r>
       <r>     3.3821     3.8227   188.4690 </r>
       <r>     3.4444     4.0913   188.7238 </r>
       <r>     3.5066     4.1142   188.9800 </r>
       <r>     3.5689     3.9163   189.2239 </r>
       <r>     3.6312     3.5323   189.4439 </r>
       <r>     3.6935     3.1189   189.6381 </r>
       <r>     3.7557     3.0179   189.8261 </r>
       <r>     3.8180     3.4649   190.0419 </r>
       <r>     3.8803     4.2307   190.3053 </r>
       <r>     3.9426     4.7205   190.5993 </r>
       <r>     4.0048     4.4797   190.8783 </r>
       <r>     4.0671     3.5727   191.1008 </r>
       <r>     4.1294     2.4954   191.2562 </r>
       <r>     4.1917     1.7613   191.3659 </r>
       <r>     4.2540     1.5574   191.4629 </r>
       <r>     4.3162     1.7233   191.5702 </r>
       <r>     4.3785     1.9461   191.6914 </r>
       <r>     4.4408     1.9498   191.8128 </r>
       <r>     4.5031     1.6174   191.9136 </r>
       <r>     4.5653     1.0471   191.9788 </r>
       <r>     4.6276     0.4744   192.0083 </r>
       <r>     4.6899     0.0918   192.0140 </r>
       <r>     4.7522    -0.0656   192.0100 </r>
       <r>     4.8144    -0.0807   192.0049 </r>
       <r>     4.8767    -0.0490   192.0019 </r>
       <r>     4.9390    -0.0210   192.0006 </r>
       <r>     5.0013    -0.0069   192.0001 </r>
       <r>     5.0636    -0.0018   192.0000 </r>
       <r>     5.1258    -0.0004   192.0000 </r>
       <r>     5.1881    -0.0001   192.0000 </r>
       <r>     5.2504    -0.0000   192.0000 </r>
       <r>     5.3127    -0.0000   192.0000 </r>
       <r>     5.3749    -0.0000   192.0000 </r>
       <r>     5.4372    -0.0000   192.0000 </r>
       <r>     5.4995    -0.0000   192.0000 </r>
       <r>     5.5618    -0.0000   192.0000 </r>
       <r>     5.6240    -0.0000   192.0000 </r>
       <r>     5.6863    -0.0000   192.0000 </r>
       <r>     5.7486    -0.0000   192.0000 </r>
       <r>     5.8109     0.0000   192.0000 </r>
       <r>     5.8732     0.0000   192.0000 </r>
       <r>     5.9354     0.0000   192.0000 </r>
       <r>     5.9977     0.0000   192.0000 </r>
       <r>     6.0600     0.0000   192.0000 </r>
       <r>     6.1223     0.0000   192.0000 </r>
       <r>     6.1845     0.0000   192.0000 </r>
       <r>     6.2468     0.0000   192.0000 </r>
       <r>     6.3091     0.0000   192.0000 </r>
       <r>     6.3714     0.0000   192.0000 </r>
       <r>     6.4336     0.0000   192.0000 </r>
       <r>     6.4959     0.0000   192.0000 </r>
      </set>
     </set>
    </array>
   </total>
  </dos>
 </calculation>
 <structure name="finalpos" >
  <crystal>
   <varray name="basis" >
    <v>       5.55785930       0.00000000       0.00000000 </v>
    <v>       2.77892965       4.81324734       0.00000000 </v>
    <v>       0.00000000       0.00000000      30.80695967 </v>
   </varray>
   <i name="volume">    824.12780743 </i>
   <varray name="rec_basis" >
    <v>       0.17992539      -0.10387997       0.00000000 </v>
    <v>       0.00000000       0.20775994       0.00000000 </v>
    <v>       0.00000000       0.00000000       0.03246020 </v>
   </varray>
  </crystal>
  <varray name="positions" >
   <v>       0.00000000       0.00000000       0.38952237 </v>
   <v>       0.50000000       0.00000000       0.38952237 </v>
   <v>       0.00000000       0.50000000       0.38952237 </v>
   <v>       0.50000000       0.50000000       0.38952237 </v>
   <v>       0.16666667       0.16666667       0.46468540 </v>
   <v>       0.66666667       0.16666667       0.46468540 </v>
   <v>       0.16666667       0.66666667       0.46468540 </v>
   <v>       0.66666667       0.66666667       0.46468540 </v>
   <v>       0.83333333       0.33333333       0.53920296 </v>
   <v>       0.33333333       0.33333333       0.53920296 </v>
   <v>       0.83333333       0.83333333       0.53920296 </v>
   <v>       0.33333333       0.83333333       0.53920296 </v>
   <v>       0.00000000       0.00000000       0.61486043 </v>
   <v>       0.00000000       0.50000000       0.61486043 </v>
   <v>       0.50000000       0.50000000       0.61486043 </v>
   <v>       0.50000000       0.00000000       0.61486043 </v>
  </varray>
  <varray name="selective"  type="logical" >
   <v type="logical" >  F  F  F </v>
   <v type="logical" >  F  F  F </v>
   <v type="logical" >  F  F  F </v>
   <v type="logical" >  F  F  F </v>
   <v type="logical" >  T  T  T </v>
   <v type="logical" >  T  T  T </v>
   <v type="logical" >  T  T  T </v>
   <v type="logical" >  T  T  T </v>
   <v type="logical" >  T  T  T </v>
   <v type="logical" >  T  T  T </v>
   <v type="logical" >  T  T  T </v>
   <v type="logical" >  T  T  T </v>
   <v type="logical" >  T  T  T </v>
   <v type="logical" >  T  T  T </v>
   <v type="logical" >  T  T  T </v>
   <v type="logical" >  T  T  T </v>
  </varray>
  <nose>
   <v>      -3.00000000       0.00000000       0.00010000       0.00010000 </v>
  </nose>
 </structure>
</modeling>
