<?xml version="1.0" encoding="ISO-8859-1"?>
<modeling>
 <generator>
  <i name="program" type="string">vasp </i>
  <i name="version" type="string">5.4.4.18Apr17-6-g9f103f2a35  </i>
  <i name="subversion" type="string">(build Apr 28 2017 10:53:45) complex            parallel </i>
  <i name="platform" type="string">LinuxIFC </i>
  <i name="date" type="string">2017 08 10 </i>
  <i name="time" type="string">21:32:14 </i>
 </generator>
 <incar>
  <i type="string" name="PREC">normal</i>
  <i type="int" name="ISPIN">     1</i>
  <i type="int" name="IBRION">     2</i>
  <i name="EDIFF">      0.00001000</i>
  <i name="EDIFFG">     -0.05000000</i>
  <i type="int" name="NSW">   500</i>
  <i name="ENCUT">    350.00000000</i>
  <i type="logical" name="LWAVE"> F  </i>
  <i type="logical" name="LCHARG"> F  </i>
  <v type="int" name="KPOINT_BSE">    -1     0     0     0</v>
  <i type="string" name="GGA"> PE</i>
  <i type="int" name="IDIPOL">     3</i>
 </incar>
 <structure name="primitive_cell" >
  <crystal>
   <varray name="basis" >
    <v>       1.38946483      -2.40662367       0.00000000 </v>
    <v>      -2.77892965       0.00000000       0.00000000 </v>
    <v>       0.00000000       0.00000000     -30.80695967 </v>
   </varray>
   <i name="volume">    206.03195186 </i>
   <varray name="rec_basis" >
    <v>       0.00000000      -0.41551989       0.00000000 </v>
    <v>      -0.35985078      -0.20775994       0.00000000 </v>
    <v>       0.00000000       0.00000000      -0.03246020 </v>
   </varray>
  </crystal>
  <varray name="positions" >
   <v>       0.00000000       0.00000000      -0.38952237 </v>
   <v>      -0.33333333       0.33333333      -0.46317412 </v>
   <v>       0.33333333      -0.33333333       0.46317412 </v>
   <v>       0.00000000       0.00000000       0.38952237 </v>
  </varray>
 </structure>
 <varray name="primitive_index" >
  <v type="int" >        1 </v>
  <v type="int" >        5 </v>
  <v type="int" >       11 </v>
  <v type="int" >       13 </v>
 </varray>
 <kpoints>
  <generation param="Monkhorst-Pack">
   <v type="int" name="divisions">       8        8        1 </v>
   <v name="usershift">      0.00000000       0.00000000       0.00000000 </v>
   <v name="genvec1">      0.12500000       0.00000000       0.00000000 </v>
   <v name="genvec2">      0.00000000       0.12500000       0.00000000 </v>
   <v name="genvec3">      0.00000000       0.00000000       1.00000000 </v>
   <v name="shift">      0.50000000       0.50000000       0.00000000 </v>
  </generation>
  <varray name="kpointlist" >
   <v>       0.06250000       0.06250000       0.00000000 </v>
   <v>       0.18750000       0.06250000       0.00000000 </v>
   <v>       0.31250000       0.06250000       0.00000000 </v>
   <v>       0.43750000       0.06250000       0.00000000 </v>
   <v>      -0.43750000       0.06250000       0.00000000 </v>
   <v>      -0.31250000       0.06250000       0.00000000 </v>
   <v>      -0.18750000       0.06250000       0.00000000 </v>
   <v>      -0.06250000       0.06250000       0.00000000 </v>
   <v>       0.18750000       0.18750000       0.00000000 </v>
   <v>       0.31250000       0.18750000       0.00000000 </v>
   <v>       0.43750000       0.18750000       0.00000000 </v>
   <v>      -0.43750000       0.18750000       0.00000000 </v>
   <v>      -0.31250000       0.18750000       0.00000000 </v>
   <v>      -0.18750000       0.18750000       0.00000000 </v>
   <v>       0.31250000       0.31250000       0.00000000 </v>
   <v>       0.43750000       0.31250000       0.00000000 </v>
   <v>      -0.43750000       0.31250000       0.00000000 </v>
   <v>      -0.31250000       0.31250000       0.00000000 </v>
   <v>       0.43750000       0.43750000       0.00000000 </v>
   <v>      -0.43750000       0.43750000       0.00000000 </v>
  </varray>
  <varray name="weights" >
   <v>       0.03125000 </v>
   <v>       0.06250000 </v>
   <v>       0.06250000 </v>
   <v>       0.06250000 </v>
   <v>       0.06250000 </v>
   <v>       0.06250000 </v>
   <v>       0.06250000 </v>
   <v>       0.03125000 </v>
   <v>       0.03125000 </v>
   <v>       0.06250000 </v>
   <v>       0.06250000 </v>
   <v>       0.06250000 </v>
   <v>       0.06250000 </v>
   <v>       0.03125000 </v>
   <v>       0.03125000 </v>
   <v>       0.06250000 </v>
   <v>       0.06250000 </v>
   <v>       0.03125000 </v>
   <v>       0.03125000 </v>
   <v>       0.03125000 </v>
  </varray>
 </kpoints>
 <parameters>
  <separator name="general" >
   <i type="string" name="SYSTEM">unknown system</i>
   <i type="logical" name="LCOMPAT"> F  </i>
  </separator>
  <separator name="electronic" >
   <i type="string" name="PREC">normal</i>
   <i name="ENMAX">    350.00000000</i>
   <i name="ENAUG">    358.96600000</i>
   <i name="EDIFF">      0.00001000</i>
   <i type="int" name="IALGO">    38</i>
   <i type="int" name="IWAVPR">    11</i>
   <i type="int" name="NBANDS">   112</i>
   <i name="NELECT">    160.00000000</i>
   <i type="int" name="TURBO">     0</i>
   <i type="int" name="IRESTART">     0</i>
   <i type="int" name="NREBOOT">     0</i>
   <i type="int" name="NMIN">     0</i>
   <i name="EREF">      0.00000000</i>
   <separator name="electronic smearing" >
    <i type="int" name="ISMEAR">     1</i>
    <i name="SIGMA">      0.20000000</i>
    <i name="KSPACING">      0.50000000</i>
    <i type="logical" name="KGAMMA"> T  </i>
   </separator>
   <separator name="electronic projectors" >
    <i type="logical" name="LREAL"> F  </i>
    <v name="ROPT">      0.00000000</v>
    <i type="int" name="LMAXPAW">  -100</i>
    <i type="int" name="LMAXMIX">     2</i>
    <i type="logical" name="NLSPLINE"> F  </i>
   </separator>
   <separator name="electronic startup" >
    <i type="int" name="ISTART">     0</i>
    <i type="int" name="ICHARG">     2</i>
    <i type="int" name="INIWAV">     1</i>
   </separator>
   <separator name="electronic spin" >
    <i type="int" name="ISPIN">     1</i>
    <i type="logical" name="LNONCOLLINEAR"> F  </i>
    <v name="MAGMOM">      1.00000000      1.00000000      1.00000000      1.00000000      1.00000000      1.00000000      1.00000000      1.00000000      1.00000000      1.00000000      1.00000000      1.00000000      1.00000000      1.00000000      1.00000000      1.00000000</v>
    <i name="NUPDOWN">     -1.00000000</i>
    <i type="logical" name="LSORBIT"> F  </i>
    <v name="SAXIS">      0.00000000      0.00000000      1.00000000</v>
    <i type="logical" name="LSPIRAL"> F  </i>
    <v name="QSPIRAL">      0.00000000      0.00000000      0.00000000</v>
    <i type="logical" name="LZEROZ"> F  </i>
   </separator>
   <separator name="electronic exchange-correlation" >
    <i type="logical" name="LASPH"> F  </i>
    <i type="logical" name="LMETAGGA"> F  </i>
   </separator>
   <separator name="electronic convergence" >
    <i type="int" name="NELM">    60</i>
    <i type="int" name="NELMDL">    -5</i>
    <i type="int" name="NELMIN">     2</i>
    <i name="ENINI">    350.00000000</i>
    <separator name="electronic convergence detail" >
     <i type="logical" name="LDIAG"> T  </i>
     <i type="logical" name="LSUBROT"> F  </i>
     <i name="WEIMIN">      0.00100000</i>
     <i name="EBREAK">      0.00000002</i>
     <i name="DEPER">      0.30000000</i>
     <i type="int" name="NRMM">     4</i>
     <i name="TIME">      0.40000000</i>
    </separator>
   </separator>
   <separator name="electronic mixer" >
    <i name="AMIX">      0.40000000</i>
    <i name="BMIX">      1.00000000</i>
    <i name="AMIN">      0.10000000</i>
    <i name="AMIX_MAG">      1.60000000</i>
    <i name="BMIX_MAG">      1.00000000</i>
    <separator name="electronic mixer details" >
     <i type="int" name="IMIX">     4</i>
     <i type="logical" name="MIXFIRST"> F  </i>
     <i type="int" name="MAXMIX">   -45</i>
     <i name="WC">    100.00000000</i>
     <i type="int" name="INIMIX">     1</i>
     <i type="int" name="MIXPRE">     1</i>
     <i type="int" name="MREMOVE">     5</i>
    </separator>
   </separator>
   <separator name="electronic dipolcorrection" >
    <i type="logical" name="LDIPOL"> F  </i>
    <i type="logical" name="LMONO"> F  </i>
    <i type="int" name="IDIPOL">     3</i>
    <i name="EPSILON">      1.00000000</i>
    <v name="DIPOL">   -100.00000000   -100.00000000   -100.00000000</v>
    <i name="EFIELD">      0.00000000</i>
   </separator>
  </separator>
  <separator name="grids" >
   <i type="int" name="NGX">    28</i>
   <i type="int" name="NGY">    28</i>
   <i type="int" name="NGZ">   144</i>
   <i type="int" name="NGXF">    56</i>
   <i type="int" name="NGYF">    56</i>
   <i type="int" name="NGZF">   288</i>
   <i type="logical" name="ADDGRID"> F  </i>
  </separator>
  <separator name="ionic" >
   <i type="int" name="NSW">   500</i>
   <i type="int" name="IBRION">     2</i>
   <i type="int" name="MDALGO">     0</i>
   <i type="int" name="ISIF">     2</i>
   <i name="PSTRESS">      0.00000000</i>
   <i name="EDIFFG">     -0.05000000</i>
   <i type="int" name="NFREE">     1</i>
   <i name="POTIM">      0.50000000</i>
   <i name="SMASS">     -3.00000000</i>
   <i name="SCALEE">      1.00000000</i>
  </separator>
  <separator name="ionic md" >
   <i name="TEBEG">      0.00010000</i>
   <i name="TEEND">      0.00010000</i>
   <i type="int" name="NBLOCK">     1</i>
   <i type="int" name="KBLOCK">   500</i>
   <i type="int" name="NPACO">   256</i>
   <i name="APACO">     16.00000000</i>
  </separator>
  <separator name="symmetry" >
   <i type="int" name="ISYM">     2</i>
   <i name="SYMPREC">      0.00001000</i>
  </separator>
  <separator name="dos" >
   <i type="int" name="LORBIT">     0</i>
   <v name="RWIGS">     -1.00000000</v>
   <i type="int" name="NEDOS">   301</i>
   <i name="EMIN">     10.00000000</i>
   <i name="EMAX">    -10.00000000</i>
   <i name="EFERMI">      0.00000000</i>
  </separator>
  <separator name="writing" >
   <i type="int" name="NWRITE">     2</i>
   <i type="logical" name="LWAVE"> F  </i>
   <i type="logical" name="LDOWNSAMPLE"> F  </i>
   <i type="logical" name="LCHARG"> F  </i>
   <i type="logical" name="LPARD"> F  </i>
   <i type="logical" name="LVTOT"> F  </i>
   <i type="logical" name="LVHAR"> F  </i>
   <i type="logical" name="LELF"> F  </i>
   <i type="logical" name="LOPTICS"> F  </i>
   <v name="STM">      0.00000000      0.00000000      0.00000000      0.00000000      0.00000000      0.00000000      0.00000000</v>
  </separator>
  <separator name="performance" >
   <i type="int" name="NPAR">    28</i>
   <i type="int" name="NSIM">     4</i>
   <i type="int" name="NBLK">    -1</i>
   <i type="logical" name="LPLANE"> T  </i>
   <i type="logical" name="LSCALAPACK"> T  </i>
   <i type="logical" name="LSCAAWARE"> F  </i>
   <i type="logical" name="LSCALU"> F  </i>
   <i type="logical" name="LASYNC"> F  </i>
   <i type="logical" name="LORBITALREAL"> F  </i>
  </separator>
  <separator name="miscellaneous" >
   <i type="int" name="IDIOT">     3</i>
   <i type="int" name="ISPECIAL">     0</i>
   <i type="logical" name="LMUSIC"> F  </i>
   <v name="POMASS">    195.08000000</v>
   <v name="DARWINR">      0.00000000</v>
   <v name="DARWINV">      1.00000000</v>
   <i type="logical" name="LCORR"> T  </i>
  </separator>
  <i type="logical" name="GGA_COMPAT"> T  </i>
  <i type="logical" name="LBERRY"> F  </i>
  <i type="int" name="ICORELEVEL">     0</i>
  <i type="logical" name="LDAU"> F  </i>
  <i type="int" name="I_CONSTRAINED_M">     0</i>
  <separator name="electronic exchange-correlation" >
   <i type="string" name="GGA">PE</i>
   <i type="int" name="VOSKOWN">     0</i>
   <i type="logical" name="LHFCALC"> F  </i>
   <i type="string" name="PRECFOCK"></i>
   <i type="logical" name="LSYMGRAD"> F  </i>
   <i type="logical" name="LHFONE"> F  </i>
   <i type="logical" name="LRHFCALC"> F  </i>
   <i type="logical" name="LTHOMAS"> F  </i>
   <i type="logical" name="LMODELHF"> F  </i>
   <i name="ENCUT4O">     -1.00000000</i>
   <i type="int" name="EXXOEP">     0</i>
   <i type="int" name="FOURORBIT">     0</i>
   <i name="AEXX">      0.00000000</i>
   <i name="HFALPHA">      0.00000000</i>
   <i name="MCALPHA">      0.00000000</i>
   <i name="ALDAX">      1.00000000</i>
   <i name="AGGAX">      1.00000000</i>
   <i name="ALDAC">      1.00000000</i>
   <i name="AGGAC">      1.00000000</i>
   <i type="int" name="NKREDX">     1</i>
   <i type="int" name="NKREDY">     1</i>
   <i type="int" name="NKREDZ">     1</i>
   <i type="logical" name="SHIFTRED"> F  </i>
   <i type="logical" name="ODDONLY"> F  </i>
   <i type="logical" name="EVENONLY"> F  </i>
   <i type="int" name="LMAXFOCK">     0</i>
   <i type="int" name="NMAXFOCKAE">     0</i>
   <i type="logical" name="LFOCKAEDFT"> F  </i>
   <i name="HFSCREEN">      0.00000000</i>
   <i name="HFSCREENC">      0.00000000</i>
   <i type="int" name="NBANDSGWLOW">     0</i>
  </separator>
  <separator name="vdW DFT" >
   <i type="logical" name="LUSE_VDW"> F  </i>
   <i name="Zab_VDW">     -0.84910000</i>
   <i name="PARAM1">      0.12340000</i>
   <i name="PARAM2">      1.00000000</i>
   <i name="PARAM3">      0.00000000</i>
  </separator>
  <separator name="model GW" >
   <i type="int" name="MODEL_GW">     0</i>
   <i name="MODEL_EPS0">     30.90479278</i>
   <i name="MODEL_ALPHA">      1.00000000</i>
  </separator>
  <separator name="linear response parameters" >
   <i type="logical" name="LEPSILON"> F  </i>
   <i type="logical" name="LRPA"> F  </i>
   <i type="logical" name="LNABLA"> F  </i>
   <i type="logical" name="LVEL"> F  </i>
   <i type="int" name="KINTER">     0</i>
   <i name="CSHIFT">      0.10000000</i>
   <i name="OMEGAMAX">     -1.00000000</i>
   <i name="DEG_THRESHOLD">      0.00200000</i>
   <i name="RTIME">     -0.10000000</i>
   <i name="WPLASMAI">      0.00000000</i>
   <v name="DFIELD">      0.00000000      0.00000000      0.00000000</v>
   <v name="WPLASMA">      0.00000000      0.00000000      0.00000000      0.00000000      0.00000000      0.00000000      0.00000000      0.00000000      0.00000000</v>
  </separator>
  <separator name="orbital magnetization" >
   <i type="logical" name="NUCIND"> F  </i>
   <v name="MAGPOS">      0.00000000      0.00000000      0.00000000</v>
   <i type="logical" name="LNICSALL"> T  </i>
   <i type="logical" name="ORBITALMAG"> F  </i>
   <i type="logical" name="LMAGBLOCH"> F  </i>
   <i type="logical" name="LCHIMAG"> F  </i>
   <i type="logical" name="LGAUGE"> T  </i>
   <i type="int" name="MAGATOM">     0</i>
   <v name="MAGDIPOL">      0.00000000      0.00000000      0.00000000</v>
   <v name="AVECCONST">      0.00000000      0.00000000      0.00000000</v>
  </separator>
  <separator name="response functions" >
   <i type="logical" name="LADDER"> F  </i>
   <i type="logical" name="LRPAFORCE"> F  </i>
   <i type="logical" name="LFXC"> F  </i>
   <i type="logical" name="LHARTREE"> T  </i>
   <i type="int" name="IBSE">     0</i>
   <v type="int" name="KPOINT">    -1     0     0     0</v>
   <i type="logical" name="LTCTE"> F  </i>
   <i type="logical" name="LTETE"> F  </i>
   <i type="logical" name="LTRIPLET"> F  </i>
   <i type="logical" name="LFXCEPS"> F  </i>
   <i type="logical" name="LFXHEG"> F  </i>
   <i type="int" name="NATURALO">     2</i>
   <i type="logical" name="L2ORDER"> F  </i>
   <i type="logical" name="LMP2LT"> F  </i>
   <i type="logical" name="LUSEW"> F  </i>
   <i name="ENCUTGW">     -2.00000000</i>
   <i name="ENCUTGWSOFT">     -2.00000000</i>
   <i name="ENCUTLF">     -1.00000000</i>
   <i type="int" name="LMAXMP2">    -1</i>
   <i name="SCISSOR">      0.00000000</i>
   <i type="int" name="NOMEGA">     0</i>
   <i type="int" name="NOMEGAR">     0</i>
   <i type="int" name="NBANDSGW">    -1</i>
   <i type="int" name="NBANDSO">    -1</i>
   <i type="int" name="NBANDSV">    -1</i>
   <i type="int" name="NELM">     1</i>
   <i type="int" name="NELMHF">     1</i>
   <i type="int" name="DIM">     3</i>
   <i type="int" name="ANTIRES">     0</i>
   <i name="OMEGAMAX">    -30.00000000</i>
   <i name="OMEGAMIN">    -30.00000000</i>
   <i name="OMEGATL">   -200.00000000</i>
   <i type="int" name="OMEGAGRID">   140</i>
   <i name="CSHIFT">     -0.10000000</i>
   <i type="logical" name="SELFENERGY"> F  </i>
   <i type="logical" name="LSPECTRAL"> F  </i>
   <i type="logical" name="LSPECTRALGW"> F  </i>
   <i type="logical" name="LSINGLES"> F  </i>
   <i type="logical" name="LFERMIGW"> F  </i>
   <i type="logical" name="ODDONLYGW"> F  </i>
   <i type="logical" name="EVENONLYGW"> F  </i>
   <i type="int" name="NKREDLFX">     1</i>
   <i type="int" name="NKREDLFY">     1</i>
   <i type="int" name="NKREDLFZ">     1</i>
   <i type="int" name="MAXMEM">  2800</i>
   <i type="int" name="TELESCOPE">     0</i>
   <i type="int" name="TAUPAR">     1</i>
   <i type="int" name="OMEGAPAR">    -1</i>
   <i name="LAMBDA">      1.00000000</i>
  </separator>
  <separator name="External order field" >
   <i name="OFIELD_KAPPA">      0.00000000</i>
   <v name="OFIELD_K">      0.00000000      0.00000000      0.00000000</v>
   <i name="OFIELD_Q6_NEAR">      0.00000000</i>
   <i name="OFIELD_Q6_FAR">      0.00000000</i>
   <i name="OFIELD_A">      0.00000000</i>
  </separator>
 </parameters>
 <atominfo>
  <atoms>      16 </atoms>
  <types>       1 </types>
  <array name="atoms" >
   <dimension dim="1">ion</dimension>
   <field type="string">element</field>
   <field type="int">atomtype</field>
   <set>
    <rc><c>Pt</c><c>   1</c></rc>
    <rc><c>Pt</c><c>   1</c></rc>
    <rc><c>Pt</c><c>   1</c></rc>
    <rc><c>Pt</c><c>   1</c></rc>
    <rc><c>Pt</c><c>   1</c></rc>
    <rc><c>Pt</c><c>   1</c></rc>
    <rc><c>Pt</c><c>   1</c></rc>
    <rc><c>Pt</c><c>   1</c></rc>
    <rc><c>Pt</c><c>   1</c></rc>
    <rc><c>Pt</c><c>   1</c></rc>
    <rc><c>Pt</c><c>   1</c></rc>
    <rc><c>Pt</c><c>   1</c></rc>
    <rc><c>Pt</c><c>   1</c></rc>
    <rc><c>Pt</c><c>   1</c></rc>
    <rc><c>Pt</c><c>   1</c></rc>
    <rc><c>Pt</c><c>   1</c></rc>
   </set>
  </array>
  <array name="atomtypes" >
   <dimension dim="1">type</dimension>
   <field type="int">atomspertype</field>
   <field type="string">element</field>
   <field>mass</field>
   <field>valence</field>
   <field type="string">pseudopotential</field>
   <set>
    <rc><c>  16</c><c>Pt</c><c>    195.08000000</c><c>     10.00000000</c><c>  PAW_PBE Pt 04Feb2005                  </c></rc>
   </set>
  </array>
 </atominfo>
 <structure name="initialpos" >
  <crystal>
   <varray name="basis" >
    <v>       5.55785930       0.00000000       0.00000000 </v>
    <v>       2.77892965       4.81324734       0.00000000 </v>
    <v>       0.00000000       0.00000000      30.80695967 </v>
   </varray>
   <i name="volume">    824.12780743 </i>
   <varray name="rec_basis" >
    <v>       0.17992539      -0.10387997       0.00000000 </v>
    <v>       0.00000000       0.20775994       0.00000000 </v>
    <v>       0.00000000       0.00000000       0.03246020 </v>
   </varray>
  </crystal>
  <varray name="positions" >
   <v>       0.00000000       0.00000000       0.38952237 </v>
   <v>       0.50000000       0.00000000       0.38952237 </v>
   <v>       0.00000000       0.50000000       0.38952237 </v>
   <v>       0.50000000       0.50000000       0.38952237 </v>
   <v>       0.16666667       0.16666667       0.46317412 </v>
   <v>       0.66666667       0.16666667       0.46317412 </v>
   <v>       0.16666667       0.66666667       0.46317412 </v>
   <v>       0.66666667       0.66666667       0.46317412 </v>
   <v>       0.83333333       0.33333333       0.53682588 </v>
   <v>       0.33333333       0.33333333       0.53682588 </v>
   <v>       0.83333333       0.83333333       0.53682588 </v>
   <v>       0.33333333       0.83333333       0.53682588 </v>
   <v>       0.00000000       0.00000000       0.61047763 </v>
   <v>       0.50000000       0.00000000       0.61047763 </v>
   <v>       0.00000000       0.50000000       0.61047763 </v>
   <v>       0.50000000       0.50000000       0.61047763 </v>
  </varray>
  <varray name="selective"  type="logical" >
   <v type="logical" >  F  F  F </v>
   <v type="logical" >  F  F  F </v>
   <v type="logical" >  F  F  F </v>
   <v type="logical" >  F  F  F </v>
   <v type="logical" >  T  T  T </v>
   <v type="logical" >  T  T  T </v>
   <v type="logical" >  T  T  T </v>
   <v type="logical" >  T  T  T </v>
   <v type="logical" >  T  T  T </v>
   <v type="logical" >  T  T  T </v>
   <v type="logical" >  T  T  T </v>
   <v type="logical" >  T  T  T </v>
   <v type="logical" >  T  T  T </v>
   <v type="logical" >  T  T  T </v>
   <v type="logical" >  T  T  T </v>
   <v type="logical" >  T  T  T </v>
  </varray>
  <nose>
   <v>      -3.00000000       0.00000000       0.00010000       0.00010000 </v>
  </nose>
 </structure>
 <calculation>
  <scstep>
   <time name="dav">    5.63    5.64</time>
   <time name="total">    5.66    5.67</time>
   <energy>
    <i name="alphaZ">    295.28085490 </i>
    <i name="ewald"> 100065.38440864 </i>
    <i name="hartreedc">-112103.49633114 </i>
    <i name="XCdc">     55.36999249 </i>
    <i name="pawpsdc">  11137.97656685 </i>
    <i name="pawaedc"> -10685.44471970 </i>
    <i name="eentropy">     -0.01493228 </i>
    <i name="bandstr">    456.81780922 </i>
    <i name="atom">  11665.65139175 </i>
    <i name="e_fr_energy">    887.52504072 </i>
    <i name="e_wo_entrp">    887.53997301 </i>
    <i name="e_0_energy">    887.53001815 </i>
   </energy>
  </scstep>
  <scstep>
   <time name="dav">    7.18    7.18</time>
   <time name="total">    7.18    7.18</time>
   <energy>
    <i name="e_fr_energy">    -53.39534839 </i>
    <i name="e_wo_entrp">    -53.38260899 </i>
    <i name="e_0_energy">    -53.39110193 </i>
   </energy>
  </scstep>
  <scstep>
   <time name="dav">    6.72    6.72</time>
   <time name="total">    6.72    6.72</time>
   <energy>
    <i name="e_fr_energy">    -98.13876295 </i>
    <i name="e_wo_entrp">    -98.10597786 </i>
    <i name="e_0_energy">    -98.12783459 </i>
   </energy>
  </scstep>
  <scstep>
   <time name="dav">    7.01    7.02</time>
   <time name="total">    7.01    7.02</time>
   <energy>
    <i name="e_fr_energy">    -98.90486709 </i>
    <i name="e_wo_entrp">    -98.87131170 </i>
    <i name="e_0_energy">    -98.89368196 </i>
   </energy>
  </scstep>
  <scstep>
   <time name="dav">    7.30    7.30</time>
   <time name="total">    7.51    7.51</time>
   <energy>
    <i name="e_fr_energy">    -98.92165605 </i>
    <i name="e_wo_entrp">    -98.88803704 </i>
    <i name="e_0_energy">    -98.91044972 </i>
   </energy>
  </scstep>
  <scstep>
   <time name="dav">    6.55    6.55</time>
   <time name="total">    6.78    6.79</time>
   <energy>
    <i name="e_fr_energy">    -95.02010715 </i>
    <i name="e_wo_entrp">    -94.94617802 </i>
    <i name="e_0_energy">    -94.99546411 </i>
   </energy>
  </scstep>
  <scstep>
   <time name="dav">    5.90    5.90</time>
   <time name="total">    6.13    6.13</time>
   <energy>
    <i name="e_fr_energy">   -120.76271650 </i>
    <i name="e_wo_entrp">   -120.77264268 </i>
    <i name="e_0_energy">   -120.76602523 </i>
   </energy>
  </scstep>
  <scstep>
   <time name="dav">    6.35    6.35</time>
   <time name="total">    6.58    6.58</time>
   <energy>
    <i name="e_fr_energy">    -94.30127717 </i>
    <i name="e_wo_entrp">    -94.22872763 </i>
    <i name="e_0_energy">    -94.27709399 </i>
   </energy>
  </scstep>
  <scstep>
   <time name="dav">    6.35    6.35</time>
   <time name="total">    6.61    6.61</time>
   <energy>
    <i name="e_fr_energy">    -93.71152016 </i>
    <i name="e_wo_entrp">    -93.65320977 </i>
    <i name="e_0_energy">    -93.69208336 </i>
   </energy>
  </scstep>
  <scstep>
   <time name="dav">    6.21    6.21</time>
   <time name="total">    6.46    6.46</time>
   <energy>
    <i name="e_fr_energy">    -92.79570140 </i>
    <i name="e_wo_entrp">    -92.76290760 </i>
    <i name="e_0_energy">    -92.78477014 </i>
   </energy>
  </scstep>
  <scstep>
   <time name="dav">    6.91    6.91</time>
   <time name="total">    7.16    7.16</time>
   <energy>
    <i name="e_fr_energy">    -92.83665867 </i>
    <i name="e_wo_entrp">    -92.80229977 </i>
    <i name="e_0_energy">    -92.82520571 </i>
   </energy>
  </scstep>
  <scstep>
   <time name="dav">    6.46    6.46</time>
   <time name="total">    6.70    6.70</time>
   <energy>
    <i name="e_fr_energy">    -92.76771915 </i>
    <i name="e_wo_entrp">    -92.73205097 </i>
    <i name="e_0_energy">    -92.75582976 </i>
   </energy>
  </scstep>
  <scstep>
   <time name="dav">    7.11    7.11</time>
   <time name="total">    7.35    7.37</time>
   <energy>
    <i name="e_fr_energy">    -92.76701414 </i>
    <i name="e_wo_entrp">    -92.73098177 </i>
    <i name="e_0_energy">    -92.75500335 </i>
   </energy>
  </scstep>
  <scstep>
   <time name="dav">    6.54    6.55</time>
   <time name="total">    6.78    6.78</time>
   <energy>
    <i name="e_fr_energy">    -92.76782962 </i>
    <i name="e_wo_entrp">    -92.73157626 </i>
    <i name="e_0_energy">    -92.75574517 </i>
   </energy>
  </scstep>
  <scstep>
   <time name="dav">    6.54    6.54</time>
   <time name="total">    6.78    6.78</time>
   <energy>
    <i name="e_fr_energy">    -92.76365412 </i>
    <i name="e_wo_entrp">    -92.72753830 </i>
    <i name="e_0_energy">    -92.75161551 </i>
   </energy>
  </scstep>
  <scstep>
   <time name="dav">    6.12    6.12</time>
   <time name="total">    6.36    6.36</time>
   <energy>
    <i name="e_fr_energy">    -92.76257137 </i>
    <i name="e_wo_entrp">    -92.72671659 </i>
    <i name="e_0_energy">    -92.75061978 </i>
   </energy>
  </scstep>
  <scstep>
   <time name="dav">    6.17    6.17</time>
   <time name="total">    6.41    6.42</time>
   <energy>
    <i name="e_fr_energy">    -92.76261111 </i>
    <i name="e_wo_entrp">    -92.72694827 </i>
    <i name="e_0_energy">    -92.75072350 </i>
   </energy>
  </scstep>
  <scstep>
   <time name="dav">    5.88    5.88</time>
   <time name="total">    6.11    6.12</time>
   <energy>
    <i name="e_fr_energy">    -92.76254060 </i>
    <i name="e_wo_entrp">    -92.72695927 </i>
    <i name="e_0_energy">    -92.75068015 </i>
   </energy>
  </scstep>
  <scstep>
   <time name="dav">    5.06    5.06</time>
   <time name="total">    5.30    5.30</time>
   <energy>
    <i name="e_fr_energy">    -92.76255297 </i>
    <i name="e_wo_entrp">    -92.72696982 </i>
    <i name="e_0_energy">    -92.75069192 </i>
   </energy>
  </scstep>
  <scstep>
   <time name="dav">    4.81    4.81</time>
   <time name="total">    5.04    5.04</time>
   <energy>
    <i name="e_fr_energy">    -92.76258030 </i>
    <i name="e_wo_entrp">    -92.72699933 </i>
    <i name="e_0_energy">    -92.75071998 </i>
   </energy>
  </scstep>
  <scstep>
   <time name="dav">    4.81    4.81</time>
   <time name="total">    5.05    5.05</time>
   <energy>
    <i name="e_fr_energy">    -92.76261201 </i>
    <i name="e_wo_entrp">    -92.72700452 </i>
    <i name="e_0_energy">    -92.75074285 </i>
   </energy>
  </scstep>
  <scstep>
   <time name="dav">    4.65    4.65</time>
   <time name="total">    4.88    4.88</time>
   <energy>
    <i name="e_fr_energy">    -92.76264030 </i>
    <i name="e_wo_entrp">    -92.72702829 </i>
    <i name="e_0_energy">    -92.75076963 </i>
   </energy>
  </scstep>
  <scstep>
   <time name="dav">    4.51    4.51</time>
   <time name="total">    4.75    4.76</time>
   <energy>
    <i name="e_fr_energy">    -92.76265897 </i>
    <i name="e_wo_entrp">    -92.72705035 </i>
    <i name="e_0_energy">    -92.75078943 </i>
   </energy>
  </scstep>
  <scstep>
   <time name="dav">    4.58    4.58</time>
   <time name="total">    4.82    4.82</time>
   <energy>
    <i name="e_fr_energy">    -92.76267225 </i>
    <i name="e_wo_entrp">    -92.72706842 </i>
    <i name="e_0_energy">    -92.75080431 </i>
   </energy>
  </scstep>
  <scstep>
   <time name="dav">    4.59    4.59</time>
   <time name="total">    4.61    4.62</time>
   <energy>
    <i name="alphaZ">    295.28085490 </i>
    <i name="ewald"> 100065.38440864 </i>
    <i name="hartreedc">-111935.11238640 </i>
    <i name="XCdc">     49.73457271 </i>
    <i name="pawpsdc">  14337.53659474 </i>
    <i name="pawaedc"> -13930.78007137 </i>
    <i name="eentropy">     -0.03559822 </i>
    <i name="bandstr">   -640.42244729 </i>
    <i name="atom">  11665.65139175 </i>
    <i name="e_fr_energy">    -92.76268055 </i>
    <i name="e_wo_entrp">    -92.72708233 </i>
    <i name="e_0_energy">    -92.75081448 </i>
   </energy>
  </scstep>
  <dipole>
   <v name="dipole">      0.00000000       0.00000000       0.00011569 </v>
   <i name="Tr[quadrupol]">   -949.77110583 </i>
   <i name="Echarged">      0.00000000 </i>
   <i name="Edipol_quadrupol">      0.00000000 </i>
   <i name="Eion">      0.00000000 </i>
  </dipole>
  <structure>
   <crystal>
    <varray name="basis" >
     <v>       5.55785930       0.00000000       0.00000000 </v>
     <v>       2.77892965       4.81324734       0.00000000 </v>
     <v>       0.00000000       0.00000000      30.80695967 </v>
    </varray>
    <i name="volume">    824.12780743 </i>
    <varray name="rec_basis" >
     <v>       0.17992539      -0.10387997       0.00000000 </v>
     <v>       0.00000000       0.20775994       0.00000000 </v>
     <v>       0.00000000       0.00000000       0.03246020 </v>
    </varray>
   </crystal>
   <varray name="positions" >
    <v>       0.00000000       0.00000000       0.38952237 </v>
    <v>       0.50000000       0.00000000       0.38952237 </v>
    <v>       0.00000000       0.50000000       0.38952237 </v>
    <v>       0.50000000       0.50000000       0.38952237 </v>
    <v>       0.16666667       0.16666667       0.46317412 </v>
    <v>       0.66666667       0.16666667       0.46317412 </v>
    <v>       0.16666667       0.66666667       0.46317412 </v>
    <v>       0.66666667       0.66666667       0.46317412 </v>
    <v>       0.83333333       0.33333333       0.53682588 </v>
    <v>       0.33333333       0.33333333       0.53682588 </v>
    <v>       0.83333333       0.83333333       0.53682588 </v>
    <v>       0.33333333       0.83333333       0.53682588 </v>
    <v>       0.00000000       0.00000000       0.61047763 </v>
    <v>       0.50000000       0.00000000       0.61047763 </v>
    <v>       0.00000000       0.50000000       0.61047763 </v>
    <v>       0.50000000       0.50000000       0.61047763 </v>
   </varray>
  </structure>
  <varray name="forces" >
   <v>       0.00000000      -0.00000000      -0.37851524 </v>
   <v>       0.00000000      -0.00000000      -0.37851524 </v>
   <v>       0.00000000      -0.00000000      -0.37851524 </v>
   <v>       0.00000000      -0.00000000      -0.37851524 </v>
   <v>      -0.00000000       0.00000000       0.20786637 </v>
   <v>      -0.00000000       0.00000000       0.20786637 </v>
   <v>       0.00000000       0.00000000       0.20786637 </v>
   <v>       0.00000000       0.00000000       0.20786637 </v>
   <v>       0.00000000      -0.00000000      -0.20784366 </v>
   <v>       0.00000000      -0.00000000      -0.20784366 </v>
   <v>      -0.00000000      -0.00000000      -0.20784366 </v>
   <v>      -0.00000000      -0.00000000      -0.20784366 </v>
   <v>      -0.00000000      -0.00000000       0.37849253 </v>
   <v>      -0.00000000       0.00000000       0.37849253 </v>
   <v>      -0.00000000       0.00000000       0.37849253 </v>
   <v>      -0.00000000      -0.00000000       0.37849253 </v>
  </varray>
  <varray name="stress" >
   <v>     -16.13674831       0.00000000       0.00000000 </v>
   <v>       0.00000000     -16.13674831      -0.00000000 </v>
   <v>       0.00000000       0.00000000      13.86390658 </v>
  </varray>
  <energy>
   <i name="e_fr_energy">    -92.76268055 </i>
   <i name="e_wo_entrp">    -92.75081448 </i>
   <i name="e_0_energy">     -0.03559822 </i>
  </energy>
  <time name="totalsc">  161.29  161.39</time>
 </calculation>
 <calculation>
  <scstep>
   <time name="dav">    5.65    5.65</time>
   <time name="total">    5.88    5.89</time>
   <energy>
    <i name="alphaZ">    295.28085490 </i>
    <i name="ewald">  99933.85985323 </i>
    <i name="hartreedc">-111804.49313188 </i>
    <i name="XCdc">     49.59862810 </i>
    <i name="pawpsdc">  14337.48522085 </i>
    <i name="pawaedc"> -13930.72897214 </i>
    <i name="eentropy">     -0.03562183 </i>
    <i name="bandstr">   -639.39481034 </i>
    <i name="atom">  11665.65139175 </i>
    <i name="e_fr_energy">    -92.77658737 </i>
    <i name="e_wo_entrp">    -92.74096553 </i>
    <i name="e_0_energy">    -92.76471342 </i>
   </energy>
  </scstep>
  <scstep>
   <time name="dav">    6.53    6.53</time>
   <time name="total">    6.77    6.77</time>
   <energy>
    <i name="e_fr_energy">    -92.84567276 </i>
    <i name="e_wo_entrp">    -92.81103319 </i>
    <i name="e_0_energy">    -92.83412624 </i>
   </energy>
  </scstep>
  <scstep>
   <time name="dav">    6.24    6.24</time>
   <time name="total">    6.48    6.48</time>
   <energy>
    <i name="e_fr_energy">    -92.79715763 </i>
    <i name="e_wo_entrp">    -92.76253009 </i>
    <i name="e_0_energy">    -92.78561512 </i>
   </energy>
  </scstep>
  <scstep>
   <time name="dav">    6.44    6.44</time>
   <time name="total">    6.68    6.68</time>
   <energy>
    <i name="e_fr_energy">    -92.79684266 </i>
    <i name="e_wo_entrp">    -92.76070326 </i>
    <i name="e_0_energy">    -92.78479619 </i>
   </energy>
  </scstep>
  <scstep>
   <time name="dav">    6.24    6.24</time>
   <time name="total">    6.47    6.48</time>
   <energy>
    <i name="e_fr_energy">    -92.78876532 </i>
    <i name="e_wo_entrp">    -92.75380288 </i>
    <i name="e_0_energy">    -92.77711117 </i>
   </energy>
  </scstep>
  <scstep>
   <time name="dav">    6.21    6.21</time>
   <time name="total">    6.44    6.44</time>
   <energy>
    <i name="e_fr_energy">    -92.78990355 </i>
    <i name="e_wo_entrp">    -92.75442359 </i>
    <i name="e_0_energy">    -92.77807690 </i>
   </energy>
  </scstep>
  <scstep>
   <time name="dav">    6.37    6.38</time>
   <time name="total">    6.61    6.61</time>
   <energy>
    <i name="e_fr_energy">    -92.78860955 </i>
    <i name="e_wo_entrp">    -92.75324717 </i>
    <i name="e_0_energy">    -92.77682209 </i>
   </energy>
  </scstep>
  <scstep>
   <time name="dav">    6.08    6.08</time>
   <time name="total">    6.32    6.32</time>
   <energy>
    <i name="e_fr_energy">    -92.78828127 </i>
    <i name="e_wo_entrp">    -92.75282851 </i>
    <i name="e_0_energy">    -92.77646368 </i>
   </energy>
  </scstep>
  <scstep>
   <time name="dav">    6.43    6.43</time>
   <time name="total">    6.66    6.66</time>
   <energy>
    <i name="e_fr_energy">    -92.78829450 </i>
    <i name="e_wo_entrp">    -92.75285462 </i>
    <i name="e_0_energy">    -92.77648121 </i>
   </energy>
  </scstep>
  <scstep>
   <time name="dav">    4.88    4.88</time>
   <time name="total">    5.12    5.12</time>
   <energy>
    <i name="e_fr_energy">    -92.78830530 </i>
    <i name="e_wo_entrp">    -92.75287499 </i>
    <i name="e_0_energy">    -92.77649519 </i>
   </energy>
  </scstep>
  <scstep>
   <time name="dav">    4.56    4.56</time>
   <time name="total">    4.79    4.79</time>
   <energy>
    <i name="e_fr_energy">    -92.78829233 </i>
    <i name="e_wo_entrp">    -92.75287327 </i>
    <i name="e_0_energy">    -92.77648597 </i>
   </energy>
  </scstep>
  <scstep>
   <time name="dav">    4.70    4.71</time>
   <time name="total">    4.73    4.73</time>
   <energy>
    <i name="alphaZ">    295.28085490 </i>
    <i name="ewald">  99933.85985323 </i>
    <i name="hartreedc">-111804.96030653 </i>
    <i name="XCdc">     49.60769221 </i>
    <i name="pawpsdc">  14311.99966464 </i>
    <i name="pawaedc"> -13905.06389254 </i>
    <i name="eentropy">     -0.03541746 </i>
    <i name="bandstr">   -639.12813360 </i>
    <i name="atom">  11665.65139175 </i>
    <i name="e_fr_energy">    -92.78829340 </i>
    <i name="e_wo_entrp">    -92.75287594 </i>
    <i name="e_0_energy">    -92.77648758 </i>
   </energy>
  </scstep>
  <dipole>
   <v name="dipole">      0.00000000       0.00000000      -0.06862288 </v>
   <i name="Tr[quadrupol]">  -1920.62627762 </i>
   <i name="Echarged">      0.00000000 </i>
   <i name="Edipol_quadrupol">      0.00000000 </i>
   <i name="Eion">      0.00000000 </i>
  </dipole>
  <structure>
   <crystal>
    <varray name="basis" >
     <v>       5.55785930       0.00000000       0.00000000 </v>
     <v>       2.77892965       4.81324734       0.00000000 </v>
     <v>       0.00000000       0.00000000      30.80695967 </v>
    </varray>
    <i name="volume">    824.12780743 </i>
    <varray name="rec_basis" >
     <v>       0.17992539      -0.10387997       0.00000000 </v>
     <v>       0.00000000       0.20775994       0.00000000 </v>
     <v>       0.00000000       0.00000000       0.03246020 </v>
    </varray>
   </crystal>
   <varray name="positions" >
    <v>       0.00000000       0.00000000       0.38952237 </v>
    <v>       0.50000000       0.00000000       0.38952237 </v>
    <v>       0.00000000       0.50000000       0.38952237 </v>
    <v>       0.50000000       0.50000000       0.38952237 </v>
    <v>       0.16666667       0.16666667       0.46349964 </v>
    <v>       0.66666667       0.16666667       0.46349964 </v>
    <v>       0.16666667       0.66666667       0.46349964 </v>
    <v>       0.66666667       0.66666667       0.46349964 </v>
    <v>       0.83333333       0.33333333       0.53650040 </v>
    <v>       0.33333333       0.33333333       0.53650040 </v>
    <v>       0.83333333       0.83333333       0.53650040 </v>
    <v>       0.33333333       0.83333333       0.53650040 </v>
    <v>      -0.00000000      -0.00000000       0.61107033 </v>
    <v>       0.50000000       0.00000000       0.61107033 </v>
    <v>      -0.00000000       0.50000000       0.61107033 </v>
    <v>       0.50000000       0.50000000       0.61107033 </v>
   </varray>
  </structure>
  <varray name="forces" >
   <v>       0.00000000       0.00000000      -0.29846169 </v>
   <v>       0.00000000       0.00000000      -0.29846169 </v>
   <v>       0.00000000       0.00000000      -0.29846169 </v>
   <v>       0.00000000       0.00000000      -0.29846169 </v>
   <v>       0.00000000       0.00000000      -0.01478988 </v>
   <v>       0.00000000      -0.00000000      -0.01478988 </v>
   <v>       0.00000000       0.00000000      -0.01478988 </v>
   <v>       0.00000000      -0.00000000      -0.01478988 </v>
   <v>      -0.00000000      -0.00000000       0.13435196 </v>
   <v>      -0.00000000      -0.00000000       0.13435196 </v>
   <v>      -0.00000000      -0.00000000       0.13435196 </v>
   <v>      -0.00000000      -0.00000000       0.13435196 </v>
   <v>      -0.00000000       0.00000000       0.17889961 </v>
   <v>      -0.00000000      -0.00000000       0.17889961 </v>
   <v>      -0.00000000      -0.00000000       0.17889961 </v>
   <v>      -0.00000000      -0.00000000       0.17889961 </v>
  </varray>
  <varray name="stress" >
   <v>     -17.11254179       0.00000000       0.00000000 </v>
   <v>       0.00000000     -17.11254179       0.00000000 </v>
   <v>       0.00000000       0.00000000      11.55100819 </v>
  </varray>
  <energy>
   <i name="e_fr_energy">    -92.78777641 </i>
   <i name="e_wo_entrp">    -92.77597059 </i>
   <i name="e_0_energy">     -0.03541746 </i>
  </energy>
  <time name="totalsc">   79.49   79.56</time>
 </calculation>
 <calculation>
  <scstep>
   <time name="dav">    5.71    5.78</time>
   <time name="total">    5.94    6.04</time>
   <energy>
    <i name="alphaZ">    295.28085490 </i>
    <i name="ewald">  99905.52923629 </i>
    <i name="hartreedc">-111776.81820903 </i>
    <i name="XCdc">     49.57996673 </i>
    <i name="pawpsdc">  14311.95377427 </i>
    <i name="pawaedc"> -13905.01808754 </i>
    <i name="eentropy">     -0.03546506 </i>
    <i name="bandstr">   -638.91190384 </i>
    <i name="atom">  11665.65139175 </i>
    <i name="e_fr_energy">    -92.78844153 </i>
    <i name="e_wo_entrp">    -92.75297647 </i>
    <i name="e_0_energy">    -92.77661985 </i>
   </energy>
  </scstep>
  <scstep>
   <time name="dav">    6.08    6.08</time>
   <time name="total">    6.32    6.32</time>
   <energy>
    <i name="e_fr_energy">    -92.79106770 </i>
    <i name="e_wo_entrp">    -92.75592728 </i>
    <i name="e_0_energy">    -92.77935423 </i>
   </energy>
  </scstep>
  <scstep>
   <time name="dav">    6.06    6.07</time>
   <time name="total">    6.30    6.30</time>
   <energy>
    <i name="e_fr_energy">    -92.78930220 </i>
    <i name="e_wo_entrp">    -92.75407738 </i>
    <i name="e_0_energy">    -92.77756059 </i>
   </energy>
  </scstep>
  <scstep>
   <time name="dav">    6.02    6.02</time>
   <time name="total">    6.26    6.26</time>
   <energy>
    <i name="e_fr_energy">    -92.78942651 </i>
    <i name="e_wo_entrp">    -92.75386708 </i>
    <i name="e_0_energy">    -92.77757337 </i>
   </energy>
  </scstep>
  <scstep>
   <time name="dav">    5.88    5.88</time>
   <time name="total">    6.11    6.12</time>
   <energy>
    <i name="e_fr_energy">    -92.78898718 </i>
    <i name="e_wo_entrp">    -92.75366430 </i>
    <i name="e_0_energy">    -92.77721289 </i>
   </energy>
  </scstep>
  <scstep>
   <time name="dav">    6.20    6.20</time>
   <time name="total">    6.43    6.44</time>
   <energy>
    <i name="e_fr_energy">    -92.78907155 </i>
    <i name="e_wo_entrp">    -92.75365381 </i>
    <i name="e_0_energy">    -92.77726564 </i>
   </energy>
  </scstep>
  <scstep>
   <time name="dav">    5.74    5.74</time>
   <time name="total">    5.97    5.97</time>
   <energy>
    <i name="e_fr_energy">    -92.78900920 </i>
    <i name="e_wo_entrp">    -92.75361272 </i>
    <i name="e_0_energy">    -92.77721037 </i>
   </energy>
  </scstep>
  <scstep>
   <time name="dav">    6.10    6.10</time>
   <time name="total">    6.34    6.34</time>
   <energy>
    <i name="e_fr_energy">    -92.78899316 </i>
    <i name="e_wo_entrp">    -92.75357038 </i>
    <i name="e_0_energy">    -92.77718557 </i>
   </energy>
  </scstep>
  <scstep>
   <time name="dav">    4.73    4.73</time>
   <time name="total">    4.76    4.76</time>
   <energy>
    <i name="alphaZ">    295.28085490 </i>
    <i name="ewald">  99905.52923629 </i>
    <i name="hartreedc">-111776.95038200 </i>
    <i name="XCdc">     49.58196506 </i>
    <i name="pawpsdc">  14307.28280489 </i>
    <i name="pawaedc"> -13900.31291452 </i>
    <i name="eentropy">     -0.03541998 </i>
    <i name="bandstr">   -638.81653012 </i>
    <i name="atom">  11665.65139175 </i>
    <i name="e_fr_energy">    -92.78899374 </i>
    <i name="e_wo_entrp">    -92.75357375 </i>
    <i name="e_0_energy">    -92.77718707 </i>
   </energy>
  </scstep>
  <dipole>
   <v name="dipole">      0.00000000       0.00000000       0.01105647 </v>
   <i name="Tr[quadrupol]">   -949.90038966 </i>
   <i name="Echarged">      0.00000000 </i>
   <i name="Edipol_quadrupol">      0.00000000 </i>
   <i name="Eion">      0.00000000 </i>
  </dipole>
  <structure>
   <crystal>
    <varray name="basis" >
     <v>       5.55785930       0.00000000       0.00000000 </v>
     <v>       2.77892965       4.81324734       0.00000000 </v>
     <v>       0.00000000       0.00000000      30.80695967 </v>
    </varray>
    <i name="volume">    824.12780743 </i>
    <varray name="rec_basis" >
     <v>       0.17992539      -0.10387997       0.00000000 </v>
     <v>       0.00000000       0.20775994       0.00000000 </v>
     <v>       0.00000000       0.00000000       0.03246020 </v>
    </varray>
   </crystal>
   <varray name="positions" >
    <v>       0.00000000       0.00000000       0.38952237 </v>
    <v>       0.50000000       0.00000000       0.38952237 </v>
    <v>       0.00000000       0.50000000       0.38952237 </v>
    <v>       0.50000000       0.50000000       0.38952237 </v>
    <v>       0.16666667       0.16666667       0.46356991 </v>
    <v>       0.66666667       0.16666667       0.46356991 </v>
    <v>       0.16666667       0.66666667       0.46356991 </v>
    <v>       0.66666667       0.66666667       0.46356991 </v>
    <v>       0.83333333       0.33333333       0.53643013 </v>
    <v>       0.33333333       0.33333333       0.53643013 </v>
    <v>       0.83333333       0.83333333       0.53643013 </v>
    <v>       0.33333333       0.83333333       0.53643013 </v>
    <v>      -0.00000000      -0.00000000       0.61119830 </v>
    <v>       0.50000000       0.00000000       0.61119830 </v>
    <v>      -0.00000000       0.50000000       0.61119830 </v>
    <v>       0.50000000       0.50000000       0.61119830 </v>
   </varray>
  </structure>
  <varray name="forces" >
   <v>       0.00000000       0.00000000      -0.28157458 </v>
   <v>       0.00000000       0.00000000      -0.28157458 </v>
   <v>      -0.00000000      -0.00000000      -0.28157458 </v>
   <v>      -0.00000000      -0.00000000      -0.28157458 </v>
   <v>      -0.00000000       0.00000000      -0.06399229 </v>
   <v>       0.00000000      -0.00000000      -0.06399229 </v>
   <v>      -0.00000000       0.00000000      -0.06399229 </v>
   <v>      -0.00000000       0.00000000      -0.06399229 </v>
   <v>       0.00000000      -0.00000000       0.20705732 </v>
   <v>       0.00000000       0.00000000       0.20705732 </v>
   <v>       0.00000000       0.00000000       0.20705732 </v>
   <v>       0.00000000      -0.00000000       0.20705732 </v>
   <v>       0.00000000       0.00000000       0.13850955 </v>
   <v>      -0.00000000      -0.00000000       0.13850955 </v>
   <v>      -0.00000000      -0.00000000       0.13850955 </v>
   <v>       0.00000000      -0.00000000       0.13850955 </v>
  </varray>
  <varray name="stress" >
   <v>     -17.29157017       0.00000000       0.00000000 </v>
   <v>       0.00000000     -17.29157017      -0.00000000 </v>
   <v>       0.00000000      -0.00000000      11.05548585 </v>
  </varray>
  <energy>
   <i name="e_fr_energy">    -92.78898032 </i>
   <i name="e_wo_entrp">    -92.77717365 </i>
   <i name="e_0_energy">     -0.03541998 </i>
  </energy>
  <time name="totalsc">   60.98   61.14</time>
 </calculation>
 <calculation>
  <scstep>
   <time name="dav">    5.65    5.65</time>
   <time name="total">    5.88    5.90</time>
   <energy>
    <i name="alphaZ">    295.28085490 </i>
    <i name="ewald">  99732.19345256 </i>
    <i name="hartreedc">-111604.31676680 </i>
    <i name="XCdc">     49.47979182 </i>
    <i name="pawpsdc">  14307.18651160 </i>
    <i name="pawaedc"> -13900.21647364 </i>
    <i name="eentropy">     -0.03504899 </i>
    <i name="bandstr">   -638.02041109 </i>
    <i name="atom">  11665.65139175 </i>
    <i name="e_fr_energy">    -92.79669789 </i>
    <i name="e_wo_entrp">    -92.76164890 </i>
    <i name="e_0_energy">    -92.78501489 </i>
   </energy>
  </scstep>
  <scstep>
   <time name="dav">    6.35    6.35</time>
   <time name="total">    6.58    6.58</time>
   <energy>
    <i name="e_fr_energy">    -92.81016475 </i>
    <i name="e_wo_entrp">    -92.77537347 </i>
    <i name="e_0_energy">    -92.79856766 </i>
   </energy>
  </scstep>
  <scstep>
   <time name="dav">    6.22    6.22</time>
   <time name="total">    6.45    6.45</time>
   <energy>
    <i name="e_fr_energy">    -92.80160418 </i>
    <i name="e_wo_entrp">    -92.76662690 </i>
    <i name="e_0_energy">    -92.78994509 </i>
   </energy>
  </scstep>
  <scstep>
   <time name="dav">    5.96    5.96</time>
   <time name="total">    6.19    6.19</time>
   <energy>
    <i name="e_fr_energy">    -92.80196418 </i>
    <i name="e_wo_entrp">    -92.76642970 </i>
    <i name="e_0_energy">    -92.79011935 </i>
   </energy>
  </scstep>
  <scstep>
   <time name="dav">    5.98    5.98</time>
   <time name="total">    6.21    6.21</time>
   <energy>
    <i name="e_fr_energy">    -92.80099729 </i>
    <i name="e_wo_entrp">    -92.76587078 </i>
    <i name="e_0_energy">    -92.78928845 </i>
   </energy>
  </scstep>
  <scstep>
   <time name="dav">    6.37    6.37</time>
   <time name="total">    6.61    6.61</time>
   <energy>
    <i name="e_fr_energy">    -92.80145803 </i>
    <i name="e_wo_entrp">    -92.76626232 </i>
    <i name="e_0_energy">    -92.78972612 </i>
   </energy>
  </scstep>
  <scstep>
   <time name="dav">    6.12    6.12</time>
   <time name="total">    6.35    6.35</time>
   <energy>
    <i name="e_fr_energy">    -92.80102439 </i>
    <i name="e_wo_entrp">    -92.76600897 </i>
    <i name="e_0_energy">    -92.78935258 </i>
   </energy>
  </scstep>
  <scstep>
   <time name="dav">    6.30    6.30</time>
   <time name="total">    6.53    6.53</time>
   <energy>
    <i name="e_fr_energy">    -92.80094917 </i>
    <i name="e_wo_entrp">    -92.76580640 </i>
    <i name="e_0_energy">    -92.78923491 </i>
   </energy>
  </scstep>
  <scstep>
   <time name="dav">    4.85    4.85</time>
   <time name="total">    4.88    4.88</time>
   <energy>
    <i name="alphaZ">    295.28085490 </i>
    <i name="ewald">  99732.19345256 </i>
    <i name="hartreedc">-111604.68265151 </i>
    <i name="XCdc">     49.48249524 </i>
    <i name="pawpsdc">  14287.50206124 </i>
    <i name="pawaedc"> -13880.38461079 </i>
    <i name="eentropy">     -0.03514196 </i>
    <i name="bandstr">   -637.80879811 </i>
    <i name="atom">  11665.65139175 </i>
    <i name="e_fr_energy">    -92.80094668 </i>
    <i name="e_wo_entrp">    -92.76580472 </i>
    <i name="e_0_energy">    -92.78923269 </i>
   </energy>
  </scstep>
  <dipole>
   <v name="dipole">      0.00000000       0.00000000       0.00273179 </v>
   <i name="Tr[quadrupol]">   -949.81634889 </i>
   <i name="Echarged">      0.00000000 </i>
   <i name="Edipol_quadrupol">      0.00000000 </i>
   <i name="Eion">      0.00000000 </i>
  </dipole>
  <structure>
   <crystal>
    <varray name="basis" >
     <v>       5.55785930       0.00000000       0.00000000 </v>
     <v>       2.77892965       4.81324734       0.00000000 </v>
     <v>       0.00000000       0.00000000      30.80695967 </v>
    </varray>
    <i name="volume">    824.12780743 </i>
    <varray name="rec_basis" >
     <v>       0.17992539      -0.10387997       0.00000000 </v>
     <v>       0.00000000       0.20775994       0.00000000 </v>
     <v>       0.00000000       0.00000000       0.03246020 </v>
    </varray>
   </crystal>
   <varray name="positions" >
    <v>       0.00000000       0.00000000       0.38952237 </v>
    <v>       0.50000000       0.00000000       0.38952237 </v>
    <v>       0.00000000       0.50000000       0.38952237 </v>
    <v>       0.50000000       0.50000000       0.38952237 </v>
    <v>       0.16666667       0.16666667       0.46356897 </v>
    <v>       0.66666667       0.16666667       0.46356897 </v>
    <v>       0.16666667       0.66666667       0.46356897 </v>
    <v>       0.66666667       0.66666667       0.46356897 </v>
    <v>       0.83333333       0.33333333       0.53666479 </v>
    <v>       0.33333333       0.33333333       0.53666479 </v>
    <v>       0.83333333       0.83333333       0.53666479 </v>
    <v>       0.33333333       0.83333333       0.53666479 </v>
    <v>      -0.00000000      -0.00000000       0.61161319 </v>
    <v>       0.50000000       0.00000000       0.61161319 </v>
    <v>      -0.00000000       0.50000000       0.61161319 </v>
    <v>       0.50000000       0.50000000       0.61161319 </v>
   </varray>
  </structure>
  <varray name="forces" >
   <v>      -0.00000000       0.00000000      -0.28128524 </v>
   <v>       0.00000000      -0.00000000      -0.28128524 </v>
   <v>      -0.00000000      -0.00000000      -0.28128524 </v>
   <v>       0.00000000       0.00000000      -0.28128524 </v>
   <v>       0.00000000      -0.00000000      -0.01211205 </v>
   <v>      -0.00000000       0.00000000      -0.01211205 </v>
   <v>       0.00000000       0.00000000      -0.01211205 </v>
   <v>       0.00000000       0.00000000      -0.01211205 </v>
   <v>      -0.00000000      -0.00000000       0.18915014 </v>
   <v>      -0.00000000      -0.00000000       0.18915014 </v>
   <v>      -0.00000000      -0.00000000       0.18915014 </v>
   <v>      -0.00000000      -0.00000000       0.18915014 </v>
   <v>       0.00000000       0.00000000       0.10424715 </v>
   <v>       0.00000000      -0.00000000       0.10424715 </v>
   <v>       0.00000000       0.00000000       0.10424715 </v>
   <v>      -0.00000000       0.00000000       0.10424715 </v>
  </varray>
  <varray name="stress" >
   <v>     -18.27526728       0.00000000       0.00000000 </v>
   <v>       0.00000000     -18.27526728      -0.00000000 </v>
   <v>       0.00000000       0.00000000       9.57671822 </v>
  </varray>
  <energy>
   <i name="e_fr_energy">    -92.80094586 </i>
   <i name="e_wo_entrp">    -92.78923187 </i>
   <i name="e_0_energy">     -0.03514196 </i>
  </energy>
  <time name="totalsc">   62.23   62.29</time>
 </calculation>
 <calculation>
  <scstep>
   <time name="dav">    5.65    5.65</time>
   <time name="total">    5.88    5.89</time>
   <energy>
    <i name="alphaZ">    295.28085490 </i>
    <i name="ewald">  99213.10868762 </i>
    <i name="hartreedc">-111087.66081506 </i>
    <i name="XCdc">     49.18287633 </i>
    <i name="pawpsdc">  14287.52804639 </i>
    <i name="pawaedc"> -13880.41059224 </i>
    <i name="eentropy">     -0.03350283 </i>
    <i name="bandstr">   -635.43311987 </i>
    <i name="atom">  11665.65139175 </i>
    <i name="e_fr_energy">    -92.78617301 </i>
    <i name="e_wo_entrp">    -92.75267018 </i>
    <i name="e_0_energy">    -92.77500540 </i>
   </energy>
  </scstep>
  <scstep>
   <time name="dav">    6.48    6.49</time>
   <time name="total">    6.72    6.72</time>
   <energy>
    <i name="e_fr_energy">    -92.89982778 </i>
    <i name="e_wo_entrp">    -92.86500621 </i>
    <i name="e_0_energy">    -92.88822059 </i>
   </energy>
  </scstep>
  <scstep>
   <time name="dav">    6.58    6.58</time>
   <time name="total">    6.81    6.81</time>
   <energy>
    <i name="e_fr_energy">    -92.83160163 </i>
    <i name="e_wo_entrp">    -92.79817616 </i>
    <i name="e_0_energy">    -92.82045980 </i>
   </energy>
  </scstep>
  <scstep>
   <time name="dav">    6.00    6.00</time>
   <time name="total">    6.22    6.23</time>
   <energy>
    <i name="e_fr_energy">    -92.83167379 </i>
    <i name="e_wo_entrp">    -92.79667892 </i>
    <i name="e_0_energy">    -92.82000883 </i>
   </energy>
  </scstep>
  <scstep>
   <time name="dav">    6.25    6.26</time>
   <time name="total">    6.49    6.49</time>
   <energy>
    <i name="e_fr_energy">    -92.82444088 </i>
    <i name="e_wo_entrp">    -92.79064844 </i>
    <i name="e_0_energy">    -92.81317673 </i>
   </energy>
  </scstep>
  <scstep>
   <time name="dav">    6.39    6.39</time>
   <time name="total">    6.62    6.62</time>
   <energy>
    <i name="e_fr_energy">    -92.82799202 </i>
    <i name="e_wo_entrp">    -92.79396364 </i>
    <i name="e_0_energy">    -92.81664923 </i>
   </energy>
  </scstep>
  <scstep>
   <time name="dav">    6.07    6.07</time>
   <time name="total">    6.30    6.30</time>
   <energy>
    <i name="e_fr_energy">    -92.82475104 </i>
    <i name="e_wo_entrp">    -92.79123539 </i>
    <i name="e_0_energy">    -92.81357916 </i>
   </energy>
  </scstep>
  <scstep>
   <time name="dav">    6.03    6.03</time>
   <time name="total">    6.25    6.26</time>
   <energy>
    <i name="e_fr_energy">    -92.82394970 </i>
    <i name="e_wo_entrp">    -92.79007513 </i>
    <i name="e_0_energy">    -92.81265817 </i>
   </energy>
  </scstep>
  <scstep>
   <time name="dav">    6.68    6.69</time>
   <time name="total">    6.91    6.92</time>
   <energy>
    <i name="e_fr_energy">    -92.82393835 </i>
    <i name="e_wo_entrp">    -92.79006277 </i>
    <i name="e_0_energy">    -92.81264649 </i>
   </energy>
  </scstep>
  <scstep>
   <time name="dav">    5.29    5.29</time>
   <time name="total">    5.52    5.52</time>
   <energy>
    <i name="e_fr_energy">    -92.82393016 </i>
    <i name="e_wo_entrp">    -92.79010009 </i>
    <i name="e_0_energy">    -92.81265347 </i>
   </energy>
  </scstep>
  <scstep>
   <time name="dav">    4.64    4.64</time>
   <time name="total">    4.66    4.67</time>
   <energy>
    <i name="alphaZ">    295.28085490 </i>
    <i name="ewald">  99213.10868762 </i>
    <i name="hartreedc">-111088.43608395 </i>
    <i name="XCdc">     49.18978535 </i>
    <i name="pawpsdc">  14230.87871555 </i>
    <i name="pawaedc"> -13823.32857113 </i>
    <i name="eentropy">     -0.03382359 </i>
    <i name="bandstr">   -635.13487894 </i>
    <i name="atom">  11665.65139175 </i>
    <i name="e_fr_energy">    -92.82392243 </i>
    <i name="e_wo_entrp">    -92.79009884 </i>
    <i name="e_0_energy">    -92.81264790 </i>
   </energy>
  </scstep>
  <dipole>
   <v name="dipole">      0.00000000       0.00000000    -218.55139671 </v>
   <i name="Tr[quadrupol]">  -2840.73225027 </i>
   <i name="Echarged">      0.00000000 </i>
   <i name="Edipol_quadrupol">      0.00000000 </i>
   <i name="Eion">      0.00000000 </i>
  </dipole>
  <structure>
   <crystal>
    <varray name="basis" >
     <v>       5.55785930       0.00000000       0.00000000 </v>
     <v>       2.77892965       4.81324734       0.00000000 </v>
     <v>       0.00000000       0.00000000      30.80695967 </v>
    </varray>
    <i name="volume">    824.12780743 </i>
    <varray name="rec_basis" >
     <v>       0.17992539      -0.10387997       0.00000000 </v>
     <v>       0.00000000       0.20775994       0.00000000 </v>
     <v>       0.00000000       0.00000000       0.03246020 </v>
    </varray>
   </crystal>
   <varray name="positions" >
    <v>       0.00000000       0.00000000       0.38952237 </v>
    <v>       0.50000000       0.00000000       0.38952237 </v>
    <v>       0.00000000       0.50000000       0.38952237 </v>
    <v>       0.50000000       0.50000000       0.38952237 </v>
    <v>       0.16666667       0.16666667       0.46356614 </v>
    <v>       0.66666667       0.16666667       0.46356614 </v>
    <v>       0.16666667       0.66666667       0.46356614 </v>
    <v>       0.66666667       0.66666667       0.46356614 </v>
    <v>       0.83333333       0.33333333       0.53736878 </v>
    <v>       0.33333333       0.33333333       0.53736878 </v>
    <v>       0.83333333       0.83333333       0.53736878 </v>
    <v>       0.33333333       0.83333333       0.53736878 </v>
    <v>      -0.00000000       0.00000000       0.61285788 </v>
    <v>       0.50000000       0.00000000       0.61285788 </v>
    <v>      -0.00000000       0.50000000       0.61285788 </v>
    <v>       0.50000000       0.50000000       0.61285788 </v>
   </varray>
  </structure>
  <varray name="forces" >
   <v>       0.00000000       0.00000000      -0.28252905 </v>
   <v>       0.00000000       0.00000000      -0.28252905 </v>
   <v>       0.00000000       0.00000000      -0.28252905 </v>
   <v>       0.00000000       0.00000000      -0.28252905 </v>
   <v>      -0.00000000      -0.00000000       0.13246360 </v>
   <v>      -0.00000000      -0.00000000       0.13246360 </v>
   <v>      -0.00000000      -0.00000000       0.13246360 </v>
   <v>      -0.00000000      -0.00000000       0.13246360 </v>
   <v>      -0.00000000       0.00000000       0.14386503 </v>
   <v>      -0.00000000       0.00000000       0.14386503 </v>
   <v>       0.00000000       0.00000000       0.14386503 </v>
   <v>      -0.00000000      -0.00000000       0.14386503 </v>
   <v>       0.00000000      -0.00000000       0.00620042 </v>
   <v>      -0.00000000      -0.00000000       0.00620042 </v>
   <v>      -0.00000000      -0.00000000       0.00620042 </v>
   <v>      -0.00000000      -0.00000000       0.00620042 </v>
  </varray>
  <varray name="stress" >
   <v>     -21.07168512       0.00000000       0.00000000 </v>
   <v>       0.00000000     -21.07168512      -0.00000000 </v>
   <v>       0.00000000      -0.00000000       5.40530331 </v>
  </varray>
  <energy>
   <i name="e_fr_energy">   5151.01335189 </i>
   <i name="e_wo_entrp">   5151.02462641 </i>
   <i name="e_0_energy">     -0.03382359 </i>
  </energy>
  <time name="totalsc">   74.86   74.92</time>
 </calculation>
 <calculation>
  <scstep>
   <time name="dav">    5.57    5.57</time>
   <time name="total">    5.80    5.81</time>
   <energy>
    <i name="alphaZ">    295.28085490 </i>
    <i name="ewald">  98179.10409948 </i>
    <i name="hartreedc">-110058.54292352 </i>
    <i name="XCdc">     48.61864721 </i>
    <i name="pawpsdc">  14230.93371639 </i>
    <i name="pawaedc"> -13823.38409785 </i>
    <i name="eentropy">     -0.02926787 </i>
    <i name="bandstr">   -630.30080835 </i>
    <i name="atom">  11665.65139175 </i>
    <i name="e_fr_energy">    -92.66838787 </i>
    <i name="e_wo_entrp">    -92.63912000 </i>
    <i name="e_0_energy">    -92.65863191 </i>
   </energy>
  </scstep>
  <scstep>
   <time name="dav">    6.57    6.57</time>
   <time name="total">    6.80    6.81</time>
   <energy>
    <i name="e_fr_energy">    -93.05362739 </i>
    <i name="e_wo_entrp">    -93.01151610 </i>
    <i name="e_0_energy">    -93.03959029 </i>
   </energy>
  </scstep>
  <scstep>
   <time name="dav">    6.69    6.69</time>
   <time name="total">    6.93    6.94</time>
   <energy>
    <i name="e_fr_energy">    -92.84454400 </i>
    <i name="e_wo_entrp">    -92.81526045 </i>
    <i name="e_0_energy">    -92.83478282 </i>
   </energy>
  </scstep>
  <scstep>
   <time name="dav">    6.33    6.33</time>
   <time name="total">    6.56    6.56</time>
   <energy>
    <i name="e_fr_energy">    -92.83531414 </i>
    <i name="e_wo_entrp">    -92.80319679 </i>
    <i name="e_0_energy">    -92.82460836 </i>
   </energy>
  </scstep>
  <scstep>
   <time name="dav">    6.28    6.28</time>
   <time name="total">    6.52    6.52</time>
   <energy>
    <i name="e_fr_energy">    -92.81789858 </i>
    <i name="e_wo_entrp">    -92.78820262 </i>
    <i name="e_0_energy">    -92.80799992 </i>
   </energy>
  </scstep>
  <scstep>
   <time name="dav">    6.13    6.13</time>
   <time name="total">    6.36    6.36</time>
   <energy>
    <i name="e_fr_energy">    -92.82889317 </i>
    <i name="e_wo_entrp">    -92.79802937 </i>
    <i name="e_0_energy">    -92.81860523 </i>
   </energy>
  </scstep>
  <scstep>
   <time name="dav">    6.16    6.17</time>
   <time name="total">    6.40    6.40</time>
   <energy>
    <i name="e_fr_energy">    -92.81929984 </i>
    <i name="e_wo_entrp">    -92.78967914 </i>
    <i name="e_0_energy">    -92.80942627 </i>
   </energy>
  </scstep>
  <scstep>
   <time name="dav">    6.09    6.09</time>
   <time name="total">    6.32    6.32</time>
   <energy>
    <i name="e_fr_energy">    -92.81616857 </i>
    <i name="e_wo_entrp">    -92.78603830 </i>
    <i name="e_0_energy">    -92.80612515 </i>
   </energy>
  </scstep>
  <scstep>
   <time name="dav">    6.68    6.68</time>
   <time name="total">    6.91    6.91</time>
   <energy>
    <i name="e_fr_energy">    -92.81602831 </i>
    <i name="e_wo_entrp">    -92.78586961 </i>
    <i name="e_0_energy">    -92.80597541 </i>
   </energy>
  </scstep>
  <scstep>
   <time name="dav">    6.60    6.60</time>
   <time name="total">    6.83    6.84</time>
   <energy>
    <i name="e_fr_energy">    -92.81593261 </i>
    <i name="e_wo_entrp">    -92.78588226 </i>
    <i name="e_0_energy">    -92.80591583 </i>
   </energy>
  </scstep>
  <scstep>
   <time name="dav">    6.15    6.15</time>
   <time name="total">    6.38    6.38</time>
   <energy>
    <i name="e_fr_energy">    -92.81593413 </i>
    <i name="e_wo_entrp">    -92.78590347 </i>
    <i name="e_0_energy">    -92.80592391 </i>
   </energy>
  </scstep>
  <scstep>
   <time name="dav">    4.71    4.71</time>
   <time name="total">    4.73    4.74</time>
   <energy>
    <i name="alphaZ">    295.28085490 </i>
    <i name="ewald">  98179.10409948 </i>
    <i name="hartreedc">-110059.89581204 </i>
    <i name="XCdc">     48.62759188 </i>
    <i name="pawpsdc">  14125.54202976 </i>
    <i name="pawaedc"> -13717.17630475 </i>
    <i name="eentropy">     -0.03003694 </i>
    <i name="bandstr">   -629.91974758 </i>
    <i name="atom">  11665.65139175 </i>
    <i name="e_fr_energy">    -92.81593354 </i>
    <i name="e_wo_entrp">    -92.78589660 </i>
    <i name="e_0_energy">    -92.80592123 </i>
   </energy>
  </scstep>
  <dipole>
   <v name="dipole">      0.00000000       0.00000000       0.00583113 </v>
   <i name="Tr[quadrupol]">   -949.73776728 </i>
   <i name="Echarged">      0.00000000 </i>
   <i name="Edipol_quadrupol">      0.00000000 </i>
   <i name="Eion">      0.00000000 </i>
  </dipole>
  <structure>
   <crystal>
    <varray name="basis" >
     <v>       5.55785930       0.00000000       0.00000000 </v>
     <v>       2.77892965       4.81324734       0.00000000 </v>
     <v>       0.00000000       0.00000000      30.80695967 </v>
    </varray>
    <i name="volume">    824.12780743 </i>
    <varray name="rec_basis" >
     <v>       0.17992539      -0.10387997       0.00000000 </v>
     <v>       0.00000000       0.20775994       0.00000000 </v>
     <v>       0.00000000       0.00000000       0.03246020 </v>
    </varray>
   </crystal>
   <varray name="positions" >
    <v>       0.00000000       0.00000000       0.38952237 </v>
    <v>       0.50000000       0.00000000       0.38952237 </v>
    <v>       0.00000000       0.50000000       0.38952237 </v>
    <v>       0.50000000       0.50000000       0.38952237 </v>
    <v>       0.16666667       0.16666667       0.46356049 </v>
    <v>       0.66666667       0.16666667       0.46356049 </v>
    <v>       0.16666667       0.66666667       0.46356049 </v>
    <v>       0.66666667       0.66666667       0.46356049 </v>
    <v>       0.83333333       0.33333333       0.53877676 </v>
    <v>       0.33333333       0.33333333       0.53877676 </v>
    <v>       0.83333333       0.83333333       0.53877676 </v>
    <v>       0.33333333       0.83333333       0.53877676 </v>
    <v>      -0.00000000       0.00000000       0.61534725 </v>
    <v>       0.50000000       0.00000000       0.61534725 </v>
    <v>      -0.00000000       0.50000000       0.61534725 </v>
    <v>       0.50000000       0.50000000       0.61534725 </v>
   </varray>
  </structure>
  <varray name="forces" >
   <v>       0.00000000       0.00000000      -0.28518687 </v>
   <v>      -0.00000000       0.00000000      -0.28518687 </v>
   <v>       0.00000000       0.00000000      -0.28518687 </v>
   <v>       0.00000000       0.00000000      -0.28518687 </v>
   <v>       0.00000000       0.00000000       0.39245179 </v>
   <v>       0.00000000       0.00000000       0.39245179 </v>
   <v>       0.00000000      -0.00000000       0.39245179 </v>
   <v>       0.00000000       0.00000000       0.39245179 </v>
   <v>      -0.00000000      -0.00000000       0.06662213 </v>
   <v>      -0.00000000       0.00000000       0.06662213 </v>
   <v>      -0.00000000      -0.00000000       0.06662213 </v>
   <v>      -0.00000000       0.00000000       0.06662213 </v>
   <v>      -0.00000000      -0.00000000      -0.17388705 </v>
   <v>      -0.00000000      -0.00000000      -0.17388705 </v>
   <v>       0.00000000      -0.00000000      -0.17388705 </v>
   <v>       0.00000000      -0.00000000      -0.17388705 </v>
  </varray>
  <varray name="stress" >
   <v>     -26.19058460       0.00000000       0.00000000 </v>
   <v>       0.00000000     -26.19058460       0.00000000 </v>
   <v>       0.00000000       0.00000000      -2.45394418 </v>
  </varray>
  <energy>
   <i name="e_fr_energy">    -92.81592981 </i>
   <i name="e_wo_entrp">    -92.80591749 </i>
   <i name="e_0_energy">     -0.03003694 </i>
  </energy>
  <time name="totalsc">   83.11   83.18</time>
 </calculation>
 <calculation>
  <scstep>
   <time name="dav">    5.65    5.65</time>
   <time name="total">    5.87    5.88</time>
   <energy>
    <i name="alphaZ">    295.28085490 </i>
    <i name="ewald">  98810.26505512 </i>
    <i name="hartreedc">-110689.02012421 </i>
    <i name="XCdc">     48.98578004 </i>
    <i name="pawpsdc">  14125.51333364 </i>
    <i name="pawaedc"> -13717.14774211 </i>
    <i name="eentropy">     -0.03286372 </i>
    <i name="bandstr">   -632.26492607 </i>
    <i name="atom">  11665.65139175 </i>
    <i name="e_fr_energy">    -92.76924066 </i>
    <i name="e_wo_entrp">    -92.73637694 </i>
    <i name="e_0_energy">    -92.75828608 </i>
   </energy>
  </scstep>
  <scstep>
   <time name="dav">    6.55    6.55</time>
   <time name="total">    6.78    6.78</time>
   <energy>
    <i name="e_fr_energy">    -93.07653907 </i>
    <i name="e_wo_entrp">    -93.03775200 </i>
    <i name="e_0_energy">    -93.06361004 </i>
   </energy>
  </scstep>
  <scstep>
   <time name="dav">    6.59    6.59</time>
   <time name="total">    6.82    6.82</time>
   <energy>
    <i name="e_fr_energy">    -92.84077894 </i>
    <i name="e_wo_entrp">    -92.80763664 </i>
    <i name="e_0_energy">    -92.82973151 </i>
   </energy>
  </scstep>
  <scstep>
   <time name="dav">    6.41    6.41</time>
   <time name="total">    6.65    6.65</time>
   <energy>
    <i name="e_fr_energy">    -92.84613471 </i>
    <i name="e_wo_entrp">    -92.81482132 </i>
    <i name="e_0_energy">    -92.83569692 </i>
   </energy>
  </scstep>
  <scstep>
   <time name="dav">    6.35    6.36</time>
   <time name="total">    6.59    6.59</time>
   <energy>
    <i name="e_fr_energy">    -92.83208525 </i>
    <i name="e_wo_entrp">    -92.79994436 </i>
    <i name="e_0_energy">    -92.82137162 </i>
   </energy>
  </scstep>
  <scstep>
   <time name="dav">    6.45    6.45</time>
   <time name="total">    6.68    6.68</time>
   <energy>
    <i name="e_fr_energy">    -92.83542436 </i>
    <i name="e_wo_entrp">    -92.80262240 </i>
    <i name="e_0_energy">    -92.82449037 </i>
   </energy>
  </scstep>
  <scstep>
   <time name="dav">    6.22    6.22</time>
   <time name="total">    6.45    6.45</time>
   <energy>
    <i name="e_fr_energy">    -92.83009020 </i>
    <i name="e_wo_entrp">    -92.79726165 </i>
    <i name="e_0_energy">    -92.81914735 </i>
   </energy>
  </scstep>
  <scstep>
   <time name="dav">    6.26    6.26</time>
   <time name="total">    6.49    6.49</time>
   <energy>
    <i name="e_fr_energy">    -92.82917433 </i>
    <i name="e_wo_entrp">    -92.79675810 </i>
    <i name="e_0_energy">    -92.81836892 </i>
   </energy>
  </scstep>
  <scstep>
   <time name="dav">    6.54    6.54</time>
   <time name="total">    6.77    6.77</time>
   <energy>
    <i name="e_fr_energy">    -92.82911879 </i>
    <i name="e_wo_entrp">    -92.79664696 </i>
    <i name="e_0_energy">    -92.81829484 </i>
   </energy>
  </scstep>
  <scstep>
   <time name="dav">    6.49    6.49</time>
   <time name="total">    6.72    6.72</time>
   <energy>
    <i name="e_fr_energy">    -92.82913127 </i>
    <i name="e_wo_entrp">    -92.79666438 </i>
    <i name="e_0_energy">    -92.81830897 </i>
   </energy>
  </scstep>
  <scstep>
   <time name="dav">    5.40    5.40</time>
   <time name="total">    5.62    5.63</time>
   <energy>
    <i name="e_fr_energy">    -92.82908572 </i>
    <i name="e_wo_entrp">    -92.79662070 </i>
    <i name="e_0_energy">    -92.81826405 </i>
   </energy>
  </scstep>
  <scstep>
   <time name="dav">    4.64    4.64</time>
   <time name="total">    4.66    4.66</time>
   <energy>
    <i name="alphaZ">    295.28085490 </i>
    <i name="ewald">  98810.26505512 </i>
    <i name="hartreedc">-110687.85043770 </i>
    <i name="XCdc">     48.96775644 </i>
    <i name="pawpsdc">  14188.36990791 </i>
    <i name="pawaedc"> -13780.49587121 </i>
    <i name="eentropy">     -0.03247933 </i>
    <i name="bandstr">   -632.98526757 </i>
    <i name="atom">  11665.65139175 </i>
    <i name="e_fr_energy">    -92.82908970 </i>
    <i name="e_wo_entrp">    -92.79661036 </i>
    <i name="e_0_energy">    -92.81826325 </i>
   </energy>
  </scstep>
  <dipole>
   <v name="dipole">      0.00000000       0.00000000       0.00469503 </v>
   <i name="Tr[quadrupol]">   -949.78514076 </i>
   <i name="Echarged">      0.00000000 </i>
   <i name="Edipol_quadrupol">      0.00000000 </i>
   <i name="Eion">      0.00000000 </i>
  </dipole>
  <structure>
   <crystal>
    <varray name="basis" >
     <v>       5.55785930       0.00000000       0.00000000 </v>
     <v>       2.77892965       4.81324734       0.00000000 </v>
     <v>       0.00000000       0.00000000      30.80695967 </v>
    </varray>
    <i name="volume">    824.12780743 </i>
    <varray name="rec_basis" >
     <v>       0.17992539      -0.10387997       0.00000000 </v>
     <v>       0.00000000       0.20775994       0.00000000 </v>
     <v>       0.00000000       0.00000000       0.03246020 </v>
    </varray>
   </crystal>
   <varray name="positions" >
    <v>       0.00000000       0.00000000       0.38952237 </v>
    <v>       0.50000000       0.00000000       0.38952237 </v>
    <v>       0.00000000       0.50000000       0.38952237 </v>
    <v>       0.50000000       0.50000000       0.38952237 </v>
    <v>       0.16666667       0.16666667       0.46356394 </v>
    <v>       0.66666667       0.16666667       0.46356394 </v>
    <v>       0.16666667       0.66666667       0.46356394 </v>
    <v>       0.66666667       0.66666667       0.46356394 </v>
    <v>       0.83333333       0.33333333       0.53791642 </v>
    <v>       0.33333333       0.33333333       0.53791642 </v>
    <v>       0.83333333       0.83333333       0.53791642 </v>
    <v>       0.33333333       0.83333333       0.53791642 </v>
    <v>      -0.00000000       0.00000000       0.61382614 </v>
    <v>       0.50000000       0.00000000       0.61382614 </v>
    <v>      -0.00000000       0.50000000       0.61382614 </v>
    <v>       0.50000000       0.50000000       0.61382614 </v>
   </varray>
  </structure>
  <varray name="forces" >
   <v>      -0.00000000      -0.00000000      -0.28515960 </v>
   <v>       0.00000000      -0.00000000      -0.28515960 </v>
   <v>       0.00000000      -0.00000000      -0.28515960 </v>
   <v>      -0.00000000       0.00000000      -0.28515960 </v>
   <v>       0.00000000      -0.00000000       0.23635238 </v>
   <v>      -0.00000000      -0.00000000       0.23635238 </v>
   <v>       0.00000000      -0.00000000       0.23635238 </v>
   <v>      -0.00000000      -0.00000000       0.23635238 </v>
   <v>      -0.00000000       0.00000000       0.11181813 </v>
   <v>      -0.00000000       0.00000000       0.11181813 </v>
   <v>       0.00000000       0.00000000       0.11181813 </v>
   <v>      -0.00000000       0.00000000       0.11181813 </v>
   <v>      -0.00000000       0.00000000      -0.06301092 </v>
   <v>      -0.00000000       0.00000000      -0.06301092 </v>
   <v>      -0.00000000       0.00000000      -0.06301092 </v>
   <v>      -0.00000000       0.00000000      -0.06301092 </v>
  </varray>
  <varray name="stress" >
   <v>     -23.14786327       0.00000000       0.00000000 </v>
   <v>       0.00000000     -23.14786327       0.00000000 </v>
   <v>       0.00000000       0.00000000       2.26230767 </v>
  </varray>
  <energy>
   <i name="e_fr_energy">    -92.82908727 </i>
   <i name="e_wo_entrp">    -92.81826083 </i>
   <i name="e_0_energy">     -0.03247933 </i>
  </energy>
  <time name="totalsc">   82.65   82.69</time>
 </calculation>
 <calculation>
  <scstep>
   <time name="dav">    5.62    5.63</time>
   <time name="total">    5.86    5.86</time>
   <energy>
    <i name="alphaZ">    295.28085490 </i>
    <i name="ewald">  98679.36266668 </i>
    <i name="hartreedc">-110557.53629652 </i>
    <i name="XCdc">     48.88142845 </i>
    <i name="pawpsdc">  14188.45291516 </i>
    <i name="pawaedc"> -13780.57898597 </i>
    <i name="eentropy">     -0.03211748 </i>
    <i name="bandstr">   -632.31518303 </i>
    <i name="atom">  11665.65139175 </i>
    <i name="e_fr_energy">    -92.83332605 </i>
    <i name="e_wo_entrp">    -92.80120857 </i>
    <i name="e_0_energy">    -92.82262023 </i>
   </energy>
  </scstep>
  <scstep>
   <time name="dav">    6.45    6.46</time>
   <time name="total">    6.69    6.69</time>
   <energy>
    <i name="e_fr_energy">    -92.84872734 </i>
    <i name="e_wo_entrp">    -92.81653529 </i>
    <i name="e_0_energy">    -92.83799665 </i>
   </energy>
  </scstep>
  <scstep>
   <time name="dav">    6.61    6.61</time>
   <time name="total">    6.84    6.84</time>
   <energy>
    <i name="e_fr_energy">    -92.84469715 </i>
    <i name="e_wo_entrp">    -92.81264386 </i>
    <i name="e_0_energy">    -92.83401272 </i>
   </energy>
  </scstep>
  <scstep>
   <time name="dav">    6.10    6.10</time>
   <time name="total">    6.33    6.33</time>
   <energy>
    <i name="e_fr_energy">    -92.84418219 </i>
    <i name="e_wo_entrp">    -92.81155111 </i>
    <i name="e_0_energy">    -92.83330516 </i>
   </energy>
  </scstep>
  <scstep>
   <time name="dav">    6.44    6.45</time>
   <time name="total">    6.67    6.68</time>
   <energy>
    <i name="e_fr_energy">    -92.84201723 </i>
    <i name="e_wo_entrp">    -92.80986244 </i>
    <i name="e_0_energy">    -92.83129897 </i>
   </energy>
  </scstep>
  <scstep>
   <time name="dav">    6.33    6.41</time>
   <time name="total">    6.56    6.65</time>
   <energy>
    <i name="e_fr_energy">    -92.84170172 </i>
    <i name="e_wo_entrp">    -92.80960066 </i>
    <i name="e_0_energy">    -92.83100137 </i>
   </energy>
  </scstep>
  <scstep>
   <time name="dav">    6.60    6.60</time>
   <time name="total">    6.83    6.84</time>
   <energy>
    <i name="e_fr_energy">    -92.84165242 </i>
    <i name="e_wo_entrp">    -92.80945985 </i>
    <i name="e_0_energy">    -92.83092156 </i>
   </energy>
  </scstep>
  <scstep>
   <time name="dav">    6.07    6.07</time>
   <time name="total">    6.30    6.31</time>
   <energy>
    <i name="e_fr_energy">    -92.84161535 </i>
    <i name="e_wo_entrp">    -92.80937411 </i>
    <i name="e_0_energy">    -92.83086827 </i>
   </energy>
  </scstep>
  <scstep>
   <time name="dav">    4.76    4.76</time>
   <time name="total">    4.79    4.79</time>
   <energy>
    <i name="alphaZ">    295.28085490 </i>
    <i name="ewald">  98679.36266668 </i>
    <i name="hartreedc">-110557.78971601 </i>
    <i name="XCdc">     48.88428876 </i>
    <i name="pawpsdc">  14171.60089399 </i>
    <i name="pawaedc"> -13763.60234931 </i>
    <i name="eentropy">     -0.03222675 </i>
    <i name="bandstr">   -632.19742906 </i>
    <i name="atom">  11665.65139175 </i>
    <i name="e_fr_energy">    -92.84162505 </i>
    <i name="e_wo_entrp">    -92.80939830 </i>
    <i name="e_0_energy">    -92.83088280 </i>
   </energy>
  </scstep>
  <dipole>
   <v name="dipole">      0.00000000       0.00000000       0.00238762 </v>
   <i name="Tr[quadrupol]">   -949.81443907 </i>
   <i name="Echarged">      0.00000000 </i>
   <i name="Edipol_quadrupol">      0.00000000 </i>
   <i name="Eion">      0.00000000 </i>
  </dipole>
  <structure>
   <crystal>
    <varray name="basis" >
     <v>       5.55785930       0.00000000       0.00000000 </v>
     <v>       2.77892965       4.81324734       0.00000000 </v>
     <v>       0.00000000       0.00000000      30.80695967 </v>
    </varray>
    <i name="volume">    824.12780743 </i>
    <varray name="rec_basis" >
     <v>       0.17992539      -0.10387997       0.00000000 </v>
     <v>       0.00000000       0.20775994       0.00000000 </v>
     <v>       0.00000000       0.00000000       0.03246020 </v>
    </varray>
   </crystal>
   <varray name="positions" >
    <v>       0.00000000       0.00000000       0.38952237 </v>
    <v>       0.50000000       0.00000000       0.38952237 </v>
    <v>       0.00000000       0.50000000       0.38952237 </v>
    <v>       0.50000000       0.50000000       0.38952237 </v>
[...]
       <r>   -3.4958    1.0000 </r>
       <r>   -3.2931    1.0000 </r>
       <r>   -3.2931    1.0000 </r>
       <r>   -2.9919    1.0000 </r>
       <r>   -2.9182    1.0000 </r>
       <r>   -2.8940    1.0000 </r>
       <r>   -2.8940    1.0000 </r>
       <r>   -2.8048    1.0000 </r>
       <r>   -2.8048    1.0000 </r>
       <r>   -2.5899    1.0000 </r>
       <r>   -2.5899    1.0000 </r>
       <r>   -2.4021    1.0000 </r>
       <r>   -2.3624    1.0000 </r>
       <r>   -2.3381    1.0000 </r>
       <r>   -2.1968    1.0000 </r>
       <r>   -2.1968    1.0000 </r>
       <r>   -2.1379    1.0000 </r>
       <r>   -2.0303    1.0000 </r>
       <r>   -2.0303    1.0000 </r>
       <r>   -2.0028    1.0000 </r>
       <r>   -1.8784    1.0000 </r>
       <r>   -1.8784    1.0000 </r>
       <r>   -1.7226    1.0000 </r>
       <r>   -1.6922    1.0000 </r>
       <r>   -1.6922    1.0000 </r>
       <r>   -1.3406    1.0005 </r>
       <r>   -1.3406    1.0005 </r>
       <r>   -1.2076    1.0078 </r>
       <r>   -1.1062    1.0277 </r>
       <r>   -0.8977    0.8457 </r>
       <r>   -0.8977    0.8457 </r>
       <r>   -0.8886    0.8180 </r>
       <r>   -0.7936    0.4467 </r>
       <r>   -0.6391    0.0014 </r>
       <r>   -0.6066   -0.0249 </r>
       <r>   -0.3982   -0.0070 </r>
       <r>   -0.3982   -0.0070 </r>
       <r>    0.2614   -0.0000 </r>
       <r>    0.5077   -0.0000 </r>
       <r>    1.5009   -0.0000 </r>
       <r>    1.6124   -0.0000 </r>
       <r>    1.6124   -0.0000 </r>
       <r>    2.3824   -0.0000 </r>
       <r>    3.2068   -0.0000 </r>
       <r>    3.4706   -0.0000 </r>
       <r>    4.0265   -0.0000 </r>
       <r>    4.0265   -0.0000 </r>
       <r>    4.4167   -0.0000 </r>
       <r>    5.3065    0.0000 </r>
       <r>    5.5840    0.0000 </r>
       <r>    5.9407    0.0000 </r>
       <r>    5.9407    0.0000 </r>
       <r>    6.1168    0.0000 </r>
       <r>    6.4549    0.0000 </r>
       <r>    6.4549    0.0000 </r>
       <r>    6.4715    0.0000 </r>
       <r>    6.8556    0.0000 </r>
       <r>    6.8556    0.0000 </r>
       <r>    6.8715    0.0000 </r>
       <r>    7.0063    0.0000 </r>
       <r>    7.0063    0.0000 </r>
       <r>    7.4509    0.0000 </r>
       <r>    7.7533    0.0000 </r>
      </set>
     </set>
    </set>
   </array>
  </eigenvalues>
  <separator name="orbital magnetization" >
   <v name="MAGDIPOLOUT">      0.00000000      0.00000000      0.00000000</v>
  </separator>
  <dos>
   <i name="efermi">     -0.80622074 </i>
   <total>
    <array>
     <dimension dim="1">gridpoints</dimension>
     <dimension dim="2">spin</dimension>
     <field>energy</field>
     <field>total</field>
     <field>integrated</field>
     <set>
      <set comment="spin 1">
       <r>   -12.1548     0.0000     0.0000 </r>
       <r>   -12.0817     0.0000     0.0000 </r>
       <r>   -12.0087     0.0000     0.0000 </r>
       <r>   -11.9357     0.0000     0.0000 </r>
       <r>   -11.8627     0.0000     0.0000 </r>
       <r>   -11.7896    -0.0000    -0.0000 </r>
       <r>   -11.7166    -0.0000    -0.0000 </r>
       <r>   -11.6436    -0.0000    -0.0000 </r>
       <r>   -11.5706    -0.0000    -0.0000 </r>
       <r>   -11.4975    -0.0000    -0.0000 </r>
       <r>   -11.4245    -0.0000    -0.0000 </r>
       <r>   -11.3515    -0.0000    -0.0000 </r>
       <r>   -11.2785    -0.0000    -0.0000 </r>
       <r>   -11.2054    -0.0000    -0.0000 </r>
       <r>   -11.1324    -0.0000    -0.0000 </r>
       <r>   -11.0594    -0.0000    -0.0000 </r>
       <r>   -10.9863    -0.0000    -0.0000 </r>
       <r>   -10.9133    -0.0000    -0.0000 </r>
       <r>   -10.8403    -0.0000    -0.0000 </r>
       <r>   -10.7673    -0.0001    -0.0000 </r>
       <r>   -10.6942    -0.0004    -0.0000 </r>
       <r>   -10.6212    -0.0020    -0.0002 </r>
       <r>   -10.5482    -0.0075    -0.0007 </r>
       <r>   -10.4752    -0.0190    -0.0021 </r>
       <r>   -10.4021    -0.0280    -0.0042 </r>
       <r>   -10.3291    -0.0011    -0.0042 </r>
       <r>   -10.2561     0.1073     0.0036 </r>
       <r>   -10.1830     0.3045     0.0258 </r>
       <r>   -10.1100     0.5373     0.0651 </r>
       <r>   -10.0370     0.7424     0.1193 </r>
       <r>    -9.9640     0.8842     0.1839 </r>
       <r>    -9.8909     0.9346     0.2521 </r>
       <r>    -9.8179     0.8822     0.3165 </r>
       <r>    -9.7449     0.7824     0.3737 </r>
       <r>    -9.6719     0.7505     0.4285 </r>
       <r>    -9.5988     0.8616     0.4914 </r>
       <r>    -9.5258     1.0327     0.5668 </r>
       <r>    -9.4528     1.0896     0.6464 </r>
       <r>    -9.3798     0.9876     0.7185 </r>
       <r>    -9.3067     0.8445     0.7802 </r>
       <r>    -9.2337     0.7556     0.8353 </r>
       <r>    -9.1607     0.7399     0.8894 </r>
       <r>    -9.0876     0.8419     0.9509 </r>
       <r>    -9.0146     1.0990     1.0311 </r>
       <r>    -8.9416     1.4133     1.1343 </r>
       <r>    -8.8686     1.6285     1.2533 </r>
       <r>    -8.7955     1.7261     1.3793 </r>
       <r>    -8.7225     1.7918     1.5102 </r>
       <r>    -8.6495     1.8281     1.6437 </r>
       <r>    -8.5765     1.7827     1.7738 </r>
       <r>    -8.5034     1.7363     1.9006 </r>
       <r>    -8.4304     1.8779     2.0378 </r>
       <r>    -8.3574     2.2539     2.2024 </r>
       <r>    -8.2843     2.6313     2.3945 </r>
       <r>    -8.2113     2.7098     2.5924 </r>
       <r>    -8.1383     2.4800     2.7735 </r>
       <r>    -8.0653     2.2026     2.9344 </r>
       <r>    -7.9922     2.0371     3.0831 </r>
       <r>    -7.9192     2.0112     3.2300 </r>
       <r>    -7.8462     2.3531     3.4018 </r>
       <r>    -7.7732     3.3328     3.6452 </r>
       <r>    -7.7001     4.6580     3.9854 </r>
       <r>    -7.6271     5.6593     4.3987 </r>
       <r>    -7.5541     6.2511     4.8552 </r>
       <r>    -7.4811     7.0090     5.3670 </r>
       <r>    -7.4080     8.2451     5.9691 </r>
       <r>    -7.3350     9.7990     6.6847 </r>
       <r>    -7.2620    11.5287     7.5266 </r>
       <r>    -7.1889    13.1622     8.4878 </r>
       <r>    -7.1159    14.0346     9.5127 </r>
       <r>    -7.0429    13.7099    10.5139 </r>
       <r>    -6.9699    12.6287    11.4361 </r>
       <r>    -6.8968    11.7911    12.2972 </r>
       <r>    -6.8238    12.0184    13.1749 </r>
       <r>    -6.7508    13.6732    14.1734 </r>
       <r>    -6.6778    16.7047    15.3933 </r>
       <r>    -6.6047    20.5262    16.8922 </r>
       <r>    -6.5317    23.9546    18.6416 </r>
       <r>    -6.4587    25.6964    20.5181 </r>
       <r>    -6.3857    25.2785    22.3641 </r>
       <r>    -6.3126    23.5969    24.0873 </r>
       <r>    -6.2396    22.1937    25.7081 </r>
       <r>    -6.1666    21.7277    27.2948 </r>
       <r>    -6.0935    21.3842    28.8564 </r>
       <r>    -6.0205    19.9526    30.3135 </r>
       <r>    -5.9475    17.2349    31.5721 </r>
       <r>    -5.8745    14.1834    32.6078 </r>
       <r>    -5.8014    11.9368    33.4796 </r>
       <r>    -5.7284    11.2688    34.3025 </r>
       <r>    -5.6554    12.7154    35.2310 </r>
       <r>    -5.5824    16.1461    36.4101 </r>
       <r>    -5.5093    20.0145    37.8717 </r>
       <r>    -5.4363    22.0979    39.4855 </r>
       <r>    -5.3633    21.6392    41.0657 </r>
       <r>    -5.2902    20.2703    42.5460 </r>
       <r>    -5.2172    20.1556    44.0179 </r>
       <r>    -5.1442    21.4688    45.5857 </r>
       <r>    -5.0712    22.3667    47.2191 </r>
       <r>    -4.9981    21.3125    48.7754 </r>
       <r>    -4.9251    18.8826    50.1544 </r>
       <r>    -4.8521    17.2908    51.4171 </r>
       <r>    -4.7791    18.2514    52.7499 </r>
       <r>    -4.7060    21.3099    54.3061 </r>
       <r>    -4.6330    24.5113    56.0961 </r>
       <r>    -4.5600    26.5406    58.0343 </r>
       <r>    -4.4870    27.5142    60.0436 </r>
       <r>    -4.4139    27.9059    62.0814 </r>
       <r>    -4.3409    27.8442    64.1148 </r>
       <r>    -4.2679    27.6034    66.1306 </r>
       <r>    -4.1948    27.7865    68.1598 </r>
       <r>    -4.1218    28.6416    70.2514 </r>
       <r>    -4.0488    29.8446    72.4308 </r>
       <r>    -3.9758    31.1997    74.7093 </r>
       <r>    -3.9027    32.9104    77.1126 </r>
       <r>    -3.8297    35.0688    79.6736 </r>
       <r>    -3.7567    37.3576    82.4017 </r>
       <r>    -3.6837    38.8589    85.2394 </r>
       <r>    -3.6106    38.0904    88.0210 </r>
       <r>    -3.5376    34.4673    90.5381 </r>
       <r>    -3.4646    29.6046    92.7000 </r>
       <r>    -3.3915    25.5863    94.5685 </r>
       <r>    -3.3185    22.4221    96.2059 </r>
       <r>    -3.2455    18.8386    97.5816 </r>
       <r>    -3.1725    15.0605    98.6815 </r>
       <r>    -3.0994    13.4072    99.6606 </r>
       <r>    -3.0264    15.9358   100.8243 </r>
       <r>    -2.9534    21.9796   102.4294 </r>
       <r>    -2.8804    28.3918   104.5028 </r>
       <r>    -2.8073    32.0026   106.8398 </r>
       <r>    -2.7343    31.5696   109.1453 </r>
       <r>    -2.6613    28.0568   111.1942 </r>
       <r>    -2.5883    23.8313   112.9345 </r>
       <r>    -2.5152    21.1139   114.4764 </r>
       <r>    -2.4422    20.4849   115.9723 </r>
       <r>    -2.3692    20.9774   117.5042 </r>
       <r>    -2.2961    21.5740   119.0797 </r>
       <r>    -2.2231    22.1763   120.6992 </r>
       <r>    -2.1501    23.1487   122.3897 </r>
       <r>    -2.0771    24.5982   124.1860 </r>
       <r>    -2.0040    26.6036   126.1288 </r>
       <r>    -1.9310    29.2755   128.2667 </r>
       <r>    -1.8580    31.6331   130.5767 </r>
       <r>    -1.7850    31.7206   132.8932 </r>
       <r>    -1.7119    29.0445   135.0142 </r>
       <r>    -1.6389    25.4986   136.8763 </r>
       <r>    -1.5659    23.0067   138.5564 </r>
       <r>    -1.4928    21.6358   140.1364 </r>
       <r>    -1.4198    20.6794   141.6466 </r>
       <r>    -1.3468    20.4262   143.1382 </r>
       <r>    -1.2738    22.0551   144.7488 </r>
       <r>    -1.2007    26.1182   146.6562 </r>
       <r>    -1.1277    31.3298   148.9441 </r>
       <r>    -1.0547    35.0716   151.5053 </r>
       <r>    -0.9817    35.7775   154.1180 </r>
       <r>    -0.9086    34.5093   156.6381 </r>
       <r>    -0.8356    33.1121   159.0562 </r>
       <r>    -0.7626    31.4683   161.3542 </r>
       <r>    -0.6896    28.3081   163.4214 </r>
       <r>    -0.6165    24.0126   165.1750 </r>
       <r>    -0.5435    20.2413   166.6532 </r>
       <r>    -0.4705    17.3794   167.9223 </r>
       <r>    -0.3974    14.6216   168.9901 </r>
       <r>    -0.3244    11.7997   169.8518 </r>
       <r>    -0.2514     9.3359   170.5336 </r>
       <r>    -0.1784     7.2911   171.0660 </r>
       <r>    -0.1053     5.6873   171.4813 </r>
       <r>    -0.0323     4.9222   171.8408 </r>
       <r>     0.0407     5.0064   172.2064 </r>
       <r>     0.1137     5.1485   172.5824 </r>
       <r>     0.1868     4.8137   172.9339 </r>
       <r>     0.2598     4.4770   173.2609 </r>
       <r>     0.3328     4.6693   173.6018 </r>
       <r>     0.4059     4.9560   173.9638 </r>
       <r>     0.4789     4.5636   174.2970 </r>
       <r>     0.5519     3.6257   174.5618 </r>
       <r>     0.6249     3.1528   174.7920 </r>
       <r>     0.6980     3.8443   175.0728 </r>
       <r>     0.7710     5.3699   175.4649 </r>
       <r>     0.8440     6.7684   175.9592 </r>
       <r>     0.9170     7.2265   176.4869 </r>
       <r>     0.9901     6.6149   176.9700 </r>
       <r>     1.0631     5.5372   177.3744 </r>
       <r>     1.1361     4.7158   177.7187 </r>
       <r>     1.2091     4.3058   178.0332 </r>
       <r>     1.2822     4.0145   178.3263 </r>
       <r>     1.3552     3.7376   178.5993 </r>
       <r>     1.4282     3.7375   178.8722 </r>
       <r>     1.5013     4.1866   179.1780 </r>
       <r>     1.5743     4.8637   179.5331 </r>
       <r>     1.6473     5.4921   179.9342 </r>
       <r>     1.7203     6.0389   180.3752 </r>
       <r>     1.7934     6.3651   180.8400 </r>
       <r>     1.8664     6.0371   181.2809 </r>
       <r>     1.9394     5.0054   181.6464 </r>
       <r>     2.0124     4.0665   181.9434 </r>
       <r>     2.0855     4.0982   182.2427 </r>
       <r>     2.1585     5.0368   182.6105 </r>
       <r>     2.2315     5.9631   183.0460 </r>
       <r>     2.3046     6.1381   183.4942 </r>
       <r>     2.3776     5.6970   183.9103 </r>
       <r>     2.4506     5.2069   184.2905 </r>
       <r>     2.5236     4.7949   184.6407 </r>
       <r>     2.5967     4.1158   184.9412 </r>
       <r>     2.6697     3.1706   185.1728 </r>
       <r>     2.7427     2.7093   185.3706 </r>
       <r>     2.8157     3.5245   185.6280 </r>
       <r>     2.8888     5.3893   186.0216 </r>
       <r>     2.9618     6.9384   186.5283 </r>
       <r>     3.0348     6.9269   187.0341 </r>
       <r>     3.1078     5.5116   187.4366 </r>
       <r>     3.1809     3.9255   187.7233 </r>
       <r>     3.2539     3.1436   187.9528 </r>
       <r>     3.3269     3.2664   188.1914 </r>
       <r>     3.4000     3.8470   188.4723 </r>
       <r>     3.4730     4.4008   188.7937 </r>
       <r>     3.5460     4.7102   189.1377 </r>
       <r>     3.6190     4.7414   189.4839 </r>
       <r>     3.6921     4.4589   189.8095 </r>
       <r>     3.7651     4.0615   190.1061 </r>
       <r>     3.8381     4.0670   190.4031 </r>
       <r>     3.9111     4.6394   190.7419 </r>
       <r>     3.9842     5.1915   191.1210 </r>
       <r>     4.0572     5.0564   191.4903 </r>
       <r>     4.1302     4.2421   191.8001 </r>
       <r>     4.2033     3.2719   192.0390 </r>
       <r>     4.2763     2.5720   192.2269 </r>
       <r>     4.3493     2.3009   192.3949 </r>
       <r>     4.4223     2.4908   192.5768 </r>
       <r>     4.4954     2.9916   192.7952 </r>
       <r>     4.5684     3.5043   193.0512 </r>
       <r>     4.6414     3.8858   193.3349 </r>
       <r>     4.7144     4.2052   193.6420 </r>
       <r>     4.7875     4.5547   193.9746 </r>
       <r>     4.8605     5.0497   194.3434 </r>
       <r>     4.9335     5.8474   194.7704 </r>
       <r>     5.0065     6.9852   195.2805 </r>
       <r>     5.0796     8.3379   195.8894 </r>
       <r>     5.1526     9.7770   196.6034 </r>
       <r>     5.2256    11.2426   197.4244 </r>
       <r>     5.2987    12.5771   198.3429 </r>
       <r>     5.3717    13.3898   199.3207 </r>
       <r>     5.4447    13.2815   200.2906 </r>
       <r>     5.5177    12.2128   201.1825 </r>
       <r>     5.5908    10.6495   201.9602 </r>
       <r>     5.6638     9.4553   202.6506 </r>
       <r>     5.7368     9.3916   203.3365 </r>
       <r>     5.8098    10.3323   204.0910 </r>
       <r>     5.8829    11.2280   204.9110 </r>
       <r>     5.9559    11.2394   205.7317 </r>
       <r>     6.0289    10.6174   206.5071 </r>
       <r>     6.1020    10.1678   207.2496 </r>
       <r>     6.1750    10.2216   207.9961 </r>
       <r>     6.2480    10.4614   208.7600 </r>
       <r>     6.3210    10.5000   209.5268 </r>
       <r>     6.3941    10.2805   210.2776 </r>
       <r>     6.4671     9.9590   211.0049 </r>
       <r>     6.5401     9.6780   211.7116 </r>
       <r>     6.6131     9.5768   212.4110 </r>
       <r>     6.6862     9.8548   213.1306 </r>
       <r>     6.7592    10.5490   213.9010 </r>
       <r>     6.8322    11.2548   214.7229 </r>
       <r>     6.9052    11.4718   215.5607 </r>
       <r>     6.9783    11.3494   216.3895 </r>
       <r>     7.0513    11.5549   217.2333 </r>
       <r>     7.1243    12.2317   218.1265 </r>
       <r>     7.1974    12.6723   219.0519 </r>
       <r>     7.2704    12.2425   219.9460 </r>
       <r>     7.3434    11.1976   220.7637 </r>
       <r>     7.4164    10.3347   221.5184 </r>
       <r>     7.4895     9.9233   222.2431 </r>
       <r>     7.5625     9.2370   222.9176 </r>
       <r>     7.6355     7.4531   223.4619 </r>
       <r>     7.7085     4.7960   223.8121 </r>
       <r>     7.7816     2.3006   223.9801 </r>
       <r>     7.8546     0.6979   224.0311 </r>
       <r>     7.9276    -0.0116   224.0303 </r>
       <r>     8.0007    -0.1816   224.0170 </r>
       <r>     8.0737    -0.1387   224.0069 </r>
       <r>     8.1467    -0.0656   224.0021 </r>
       <r>     8.2197    -0.0220   224.0005 </r>
       <r>     8.2928    -0.0054   224.0001 </r>
       <r>     8.3658    -0.0010   224.0000 </r>
       <r>     8.4388    -0.0001   224.0000 </r>
       <r>     8.5118    -0.0000   224.0000 </r>
       <r>     8.5849    -0.0000   224.0000 </r>
       <r>     8.6579    -0.0000   224.0000 </r>
       <r>     8.7309    -0.0000   224.0000 </r>
       <r>     8.8039    -0.0000   224.0000 </r>
       <r>     8.8770    -0.0000   224.0000 </r>
       <r>     8.9500    -0.0000   224.0000 </r>
       <r>     9.0230    -0.0000   224.0000 </r>
       <r>     9.0961     0.0000   224.0000 </r>
       <r>     9.1691     0.0000   224.0000 </r>
       <r>     9.2421     0.0000   224.0000 </r>
       <r>     9.3151     0.0000   224.0000 </r>
       <r>     9.3882     0.0000   224.0000 </r>
       <r>     9.4612     0.0000   224.0000 </r>
       <r>     9.5342     0.0000   224.0000 </r>
       <r>     9.6072     0.0000   224.0000 </r>
       <r>     9.6803     0.0000   224.0000 </r>
       <r>     9.7533     0.0000   224.0000 </r>
      </set>
     </set>
    </array>
   </total>
  </dos>
 </calculation>
 <structure name="finalpos" >
  <crystal>
   <varray name="basis" >
    <v>       5.55785930       0.00000000       0.00000000 </v>
    <v>       2.77892965       4.81324734       0.00000000 </v>
    <v>       0.00000000       0.00000000      30.80695967 </v>
   </varray>
   <i name="volume">    824.12780743 </i>
   <varray name="rec_basis" >
    <v>       0.17992539      -0.10387997       0.00000000 </v>
    <v>       0.00000000       0.20775994       0.00000000 </v>
    <v>       0.00000000       0.00000000       0.03246020 </v>
   </varray>
  </crystal>
  <varray name="positions" >
   <v>       0.00000000       0.00000000       0.38952237 </v>
   <v>       0.50000000       0.00000000       0.38952237 </v>
   <v>       0.00000000       0.50000000       0.38952237 </v>
   <v>       0.50000000       0.50000000       0.38952237 </v>
   <v>       0.16666667       0.16666667       0.46468540 </v>
   <v>       0.66666667       0.16666667       0.46468540 </v>
   <v>       0.16666667       0.66666667       0.46468540 </v>
   <v>       0.66666667       0.66666667       0.46468540 </v>
   <v>       0.83333333       0.33333333       0.53920296 </v>
   <v>       0.33333333       0.33333333       0.53920296 </v>
   <v>       0.83333333       0.83333333       0.53920296 </v>
   <v>       0.33333333       0.83333333       0.53920296 </v>
   <v>      -0.00000000       0.00000000       0.61486043 </v>
   <v>       0.50000000       0.00000000       0.61486043 </v>
   <v>      -0.00000000       0.50000000       0.61486043 </v>
   <v>       0.50000000       0.50000000       0.61486043 </v>
  </varray>
  <varray name="selective"  type="logical" >
   <v type="logical" >  F  F  F </v>
   <v type="logical" >  F  F  F </v>
   <v type="logical" >  F  F  F </v>
   <v type="logical" >  F  F  F </v>
   <v type="logical" >  T  T  T </v>
   <v type="logical" >  T  T  T </v>
   <v type="logical" >  T  T  T </v>
   <v type="logical" >  T  T  T </v>
   <v type="logical" >  T  T  T </v>
   <v type="logical" >  T  T  T </v>
   <v type="logical" >  T  T  T </v>
   <v type="logical" >  T  T  T </v>
   <v type="logical" >  T  T  T </v>
   <v type="logical" >  T  T  T </v>
   <v type="logical" >  T  T  T </v>
   <v type="logical" >  T  T  T </v>
  </varray>
  <nose>
   <v>      -3.00000000       0.00000000       0.00010000       0.00010000 </v>
  </nose>
 </structure>
</modeling>
