<?xml version="1.0" encoding="ISO-8859-1"?>
<modeling>
 <generator>
  <i name="program" type="string">vasp </i>
  <i name="version" type="string">5.4.4.18Apr17-6-g9f103f2a35  </i>
  <i name="subversion" type="string">(build Apr 28 2017 10:53:45) complex            parallel </i>
  <i name="platform" type="string">LinuxIFC </i>
  <i name="date" type="string">2020 02 16 </i>
  <i name="time" type="string">21:02:18 </i>
 </generator>
 <incar>
  <i type="string" name="PREC">normal</i>
  <i type="int" name="ISPIN">     1</i>
  <i type="int" name="IBRION">     2</i>
  <i name="EDIFF">      0.00001000</i>
  <i name="EDIFFG">     -0.05000000</i>
  <i type="int" name="NSW">     0</i>
  <i name="ENCUT">    350.00000000</i>
  <i type="logical" name="LWAVE"> F  </i>
  <i type="logical" name="LCHARG"> F  </i>
  <v type="int" name="KPOINT_BSE">    -1     0     0     0</v>
  <i type="string" name="GGA"> PE</i>
  <i type="int" name="IDIPOL">     3</i>
 </incar>
 <structure name="primitive_cell" >
  <crystal>
   <varray name="basis" >
    <v>       5.55785930       0.00000000       0.00000000 </v>
    <v>       2.77892965       4.81324734       0.00000000 </v>
    <v>       0.00000000       0.00000000      30.80695967 </v>
   </varray>
   <i name="volume">    824.12780743 </i>
   <varray name="rec_basis" >
    <v>       0.17992539      -0.10387997       0.00000000 </v>
    <v>       0.00000000       0.20775994       0.00000000 </v>
    <v>       0.00000000       0.00000000       0.03246020 </v>
   </varray>
  </crystal>
  <varray name="positions" >
   <v>       0.00000000       0.00000000       0.38952237 </v>
   <v>       0.00000000      -0.50000000       0.38952237 </v>
   <v>      -0.50000000      -0.50000000       0.38952237 </v>
   <v>      -0.50000000       0.00000000       0.38952237 </v>
   <v>       0.16666667       0.16666667       0.46468540 </v>
   <v>       0.16666667      -0.33333333       0.46468540 </v>
   <v>      -0.33333333       0.16666667       0.46468540 </v>
   <v>      -0.33333333      -0.33333333       0.46468540 </v>
   <v>      -0.16666667      -0.16666667      -0.46079704 </v>
   <v>      -0.16666667       0.33333333      -0.46079704 </v>
   <v>       0.33333333      -0.16666667      -0.46079704 </v>
   <v>       0.33333333       0.33333333      -0.46079704 </v>
   <v>       0.00000000       0.00000000      -0.38513957 </v>
   <v>      -0.50000000       0.00000000      -0.38513957 </v>
   <v>      -0.50000000      -0.50000000      -0.38513957 </v>
   <v>       0.00000000      -0.50000000      -0.38513957 </v>
  </varray>
 </structure>
 <varray name="primitive_index" >
  <v type="int" >        1 </v>
  <v type="int" >        3 </v>
  <v type="int" >        4 </v>
  <v type="int" >        2 </v>
  <v type="int" >        5 </v>
  <v type="int" >        7 </v>
  <v type="int" >        6 </v>
  <v type="int" >        8 </v>
  <v type="int" >       11 </v>
  <v type="int" >        9 </v>
  <v type="int" >       12 </v>
  <v type="int" >       10 </v>
  <v type="int" >       13 </v>
  <v type="int" >       14 </v>
  <v type="int" >       15 </v>
  <v type="int" >       16 </v>
 </varray>
 <kpoints>
  <generation param="Monkhorst-Pack">
   <v type="int" name="divisions">       8        8        1 </v>
   <v name="usershift">      0.00000000       0.00000000       0.00000000 </v>
   <v name="genvec1">      0.12500000       0.00000000       0.00000000 </v>
   <v name="genvec2">      0.00000000       0.12500000       0.00000000 </v>
   <v name="genvec3">      0.00000000       0.00000000       1.00000000 </v>
   <v name="shift">      0.50000000       0.50000000       0.00000000 </v>
  </generation>
  <varray name="kpointlist" >
   <v>       0.06250000       0.06250000       0.00000000 </v>
   <v>      -0.06250000       0.00000000       0.00000000 </v>
   <v>       0.18750000       0.06250000       0.00000000 </v>
   <v>       0.12500000       0.18750000       0.00000000 </v>
   <v>      -0.06250000       0.12500000       0.00000000 </v>
   <v>       0.31250000       0.06250000       0.00000000 </v>
   <v>       0.25000000       0.31250000       0.00000000 </v>
   <v>      -0.06250000       0.25000000       0.00000000 </v>
   <v>       0.43750000       0.06250000       0.00000000 </v>
   <v>       0.37500000       0.43750000       0.00000000 </v>
   <v>      -0.06250000       0.37500000       0.00000000 </v>
   <v>      -0.43750000       0.06250000       0.00000000 </v>
   <v>       0.50000000      -0.43750000       0.00000000 </v>
   <v>      -0.06250000       0.50000000       0.00000000 </v>
   <v>      -0.31250000       0.06250000       0.00000000 </v>
   <v>      -0.37500000      -0.31250000       0.00000000 </v>
   <v>      -0.06250000      -0.37500000       0.00000000 </v>
   <v>      -0.18750000       0.06250000       0.00000000 </v>
   <v>      -0.25000000      -0.18750000       0.00000000 </v>
   <v>      -0.06250000      -0.25000000       0.00000000 </v>
   <v>      -0.06250000       0.06250000       0.00000000 </v>
   <v>      -0.06250000      -0.12500000       0.00000000 </v>
   <v>       0.18750000       0.18750000       0.00000000 </v>
   <v>      -0.18750000       0.00000000       0.00000000 </v>
   <v>       0.31250000       0.18750000       0.00000000 </v>
   <v>       0.12500000       0.31250000       0.00000000 </v>
   <v>      -0.18750000       0.12500000       0.00000000 </v>
   <v>       0.43750000       0.18750000       0.00000000 </v>
   <v>       0.25000000       0.43750000       0.00000000 </v>
   <v>      -0.18750000       0.25000000       0.00000000 </v>
   <v>      -0.43750000       0.18750000       0.00000000 </v>
   <v>       0.37500000      -0.43750000       0.00000000 </v>
   <v>      -0.18750000       0.37500000       0.00000000 </v>
   <v>      -0.31250000       0.18750000       0.00000000 </v>
   <v>       0.50000000      -0.31250000       0.00000000 </v>
   <v>      -0.18750000       0.50000000       0.00000000 </v>
   <v>      -0.18750000       0.18750000       0.00000000 </v>
   <v>      -0.18750000      -0.37500000       0.00000000 </v>
   <v>       0.31250000       0.31250000       0.00000000 </v>
   <v>      -0.31250000       0.00000000       0.00000000 </v>
   <v>       0.43750000       0.31250000       0.00000000 </v>
   <v>       0.12500000       0.43750000       0.00000000 </v>
   <v>      -0.31250000       0.12500000       0.00000000 </v>
   <v>      -0.43750000       0.31250000       0.00000000 </v>
   <v>       0.25000000      -0.43750000       0.00000000 </v>
   <v>      -0.31250000       0.25000000       0.00000000 </v>
   <v>      -0.31250000       0.31250000       0.00000000 </v>
   <v>      -0.31250000       0.37500000       0.00000000 </v>
   <v>       0.43750000       0.43750000       0.00000000 </v>
   <v>      -0.43750000       0.00000000       0.00000000 </v>
   <v>      -0.43750000       0.43750000       0.00000000 </v>
   <v>      -0.43750000       0.12500000       0.00000000 </v>
  </varray>
  <varray name="weights" >
   <v>       0.02083333 </v>
   <v>       0.01041667 </v>
   <v>       0.02083333 </v>
   <v>       0.02083333 </v>
   <v>       0.02083333 </v>
   <v>       0.02083333 </v>
   <v>       0.02083333 </v>
   <v>       0.02083333 </v>
   <v>       0.02083333 </v>
   <v>       0.02083333 </v>
   <v>       0.02083333 </v>
   <v>       0.02083333 </v>
   <v>       0.02083333 </v>
   <v>       0.02083333 </v>
   <v>       0.02083333 </v>
   <v>       0.02083333 </v>
   <v>       0.02083333 </v>
   <v>       0.02083333 </v>
   <v>       0.02083333 </v>
   <v>       0.02083333 </v>
   <v>       0.02083333 </v>
   <v>       0.01041667 </v>
   <v>       0.02083333 </v>
   <v>       0.01041667 </v>
   <v>       0.02083333 </v>
   <v>       0.02083333 </v>
   <v>       0.02083333 </v>
   <v>       0.02083333 </v>
   <v>       0.02083333 </v>
   <v>       0.02083333 </v>
   <v>       0.02083333 </v>
   <v>       0.02083333 </v>
   <v>       0.02083333 </v>
   <v>       0.02083333 </v>
   <v>       0.02083333 </v>
   <v>       0.02083333 </v>
   <v>       0.02083333 </v>
   <v>       0.01041667 </v>
   <v>       0.02083333 </v>
   <v>       0.01041667 </v>
   <v>       0.02083333 </v>
   <v>       0.02083333 </v>
   <v>       0.02083333 </v>
   <v>       0.02083333 </v>
   <v>       0.02083333 </v>
   <v>       0.02083333 </v>
   <v>       0.02083333 </v>
   <v>       0.01041667 </v>
   <v>       0.02083333 </v>
   <v>       0.01041667 </v>
   <v>       0.02083333 </v>
   <v>       0.01041667 </v>
  </varray>
 </kpoints>
 <parameters>
  <separator name="general" >
   <i type="string" name="SYSTEM">unknown system</i>
   <i type="logical" name="LCOMPAT"> F  </i>
  </separator>
  <separator name="electronic" >
   <i type="string" name="PREC">normal</i>
   <i name="ENMAX">    350.00000000</i>
   <i name="ENAUG">    358.96600000</i>
   <i name="EDIFF">      0.00001000</i>
   <i type="int" name="IALGO">    38</i>
   <i type="int" name="IWAVPR">    10</i>
   <i type="int" name="NBANDS">    96</i>
   <i name="NELECT">    160.00000000</i>
   <i type="int" name="TURBO">     0</i>
   <i type="int" name="IRESTART">     0</i>
   <i type="int" name="NREBOOT">     0</i>
   <i type="int" name="NMIN">     0</i>
   <i name="EREF">      0.00000000</i>
   <separator name="electronic smearing" >
    <i type="int" name="ISMEAR">     1</i>
    <i name="SIGMA">      0.20000000</i>
    <i name="KSPACING">      0.50000000</i>
    <i type="logical" name="KGAMMA"> T  </i>
   </separator>
   <separator name="electronic projectors" >
    <i type="logical" name="LREAL"> F  </i>
    <v name="ROPT">      0.00000000      0.00000000      0.00000000</v>
    <i type="int" name="LMAXPAW">  -100</i>
    <i type="int" name="LMAXMIX">     2</i>
    <i type="logical" name="NLSPLINE"> F  </i>
   </separator>
   <separator name="electronic startup" >
    <i type="int" name="ISTART">     0</i>
    <i type="int" name="ICHARG">     2</i>
    <i type="int" name="INIWAV">     1</i>
   </separator>
   <separator name="electronic spin" >
    <i type="int" name="ISPIN">     1</i>
    <i type="logical" name="LNONCOLLINEAR"> F  </i>
    <v name="MAGMOM">      1.00000000      1.00000000      1.00000000      1.00000000      1.00000000      1.00000000      1.00000000      1.00000000      1.00000000      1.00000000      1.00000000      1.00000000      1.00000000      1.00000000      1.00000000      1.00000000</v>
    <i name="NUPDOWN">     -1.00000000</i>
    <i type="logical" name="LSORBIT"> F  </i>
    <v name="SAXIS">      0.00000000      0.00000000      1.00000000</v>
    <i type="logical" name="LSPIRAL"> F  </i>
    <v name="QSPIRAL">      0.00000000      0.00000000      0.00000000</v>
    <i type="logical" name="LZEROZ"> F  </i>
   </separator>
   <separator name="electronic exchange-correlation" >
    <i type="logical" name="LASPH"> F  </i>
    <i type="logical" name="LMETAGGA"> F  </i>
   </separator>
   <separator name="electronic convergence" >
    <i type="int" name="NELM">    60</i>
    <i type="int" name="NELMDL">    -5</i>
    <i type="int" name="NELMIN">     2</i>
    <i name="ENINI">    350.00000000</i>
    <separator name="electronic convergence detail" >
     <i type="logical" name="LDIAG"> T  </i>
     <i type="logical" name="LSUBROT"> F  </i>
     <i name="WEIMIN">      0.00000000</i>
     <i name="EBREAK">      0.00000003</i>
     <i name="DEPER">      0.30000000</i>
     <i type="int" name="NRMM">     4</i>
     <i name="TIME">      0.40000000</i>
    </separator>
   </separator>
   <separator name="electronic mixer" >
    <i name="AMIX">      0.40000000</i>
    <i name="BMIX">      1.00000000</i>
    <i name="AMIN">      0.10000000</i>
    <i name="AMIX_MAG">      1.60000000</i>
    <i name="BMIX_MAG">      1.00000000</i>
    <separator name="electronic mixer details" >
     <i type="int" name="IMIX">     4</i>
     <i type="logical" name="MIXFIRST"> F  </i>
     <i type="int" name="MAXMIX">   -45</i>
     <i name="WC">    100.00000000</i>
     <i type="int" name="INIMIX">     1</i>
     <i type="int" name="MIXPRE">     1</i>
     <i type="int" name="MREMOVE">     5</i>
    </separator>
   </separator>
   <separator name="electronic dipolcorrection" >
    <i type="logical" name="LDIPOL"> F  </i>
    <i type="logical" name="LMONO"> F  </i>
    <i type="int" name="IDIPOL">     3</i>
    <i name="EPSILON">      1.00000000</i>
    <v name="DIPOL">   -100.00000000   -100.00000000   -100.00000000</v>
    <i name="EFIELD">      0.00000000</i>
   </separator>
  </separator>
  <separator name="grids" >
   <i type="int" name="NGX">    28</i>
   <i type="int" name="NGY">    28</i>
   <i type="int" name="NGZ">   144</i>
   <i type="int" name="NGXF">    56</i>
   <i type="int" name="NGYF">    56</i>
   <i type="int" name="NGZF">   288</i>
   <i type="logical" name="ADDGRID"> F  </i>
  </separator>
  <separator name="ionic" >
   <i type="int" name="NSW">     0</i>
   <i type="int" name="IBRION">    -1</i>
   <i type="int" name="MDALGO">     0</i>
   <i type="int" name="ISIF">     2</i>
   <i name="PSTRESS">      0.00000000</i>
   <i name="EDIFFG">     -0.05000000</i>
   <i type="int" name="NFREE">     1</i>
   <i name="POTIM">      0.50000000</i>
   <i name="SMASS">     -3.00000000</i>
   <i name="SCALEE">      1.00000000</i>
  </separator>
  <separator name="ionic md" >
   <i name="TEBEG">      0.00010000</i>
   <i name="TEEND">      0.00010000</i>
   <i type="int" name="NBLOCK">     1</i>
   <i type="int" name="KBLOCK">     1</i>
   <i type="int" name="NPACO">   256</i>
   <i name="APACO">     16.00000000</i>
  </separator>
  <separator name="symmetry" >
   <i type="int" name="ISYM">     2</i>
   <i name="SYMPREC">      0.00001000</i>
  </separator>
  <separator name="dos" >
   <i type="int" name="LORBIT">     0</i>
   <v name="RWIGS">     -1.00000000     -1.00000000     -1.00000000</v>
   <i type="int" name="NEDOS">   301</i>
   <i name="EMIN">     10.00000000</i>
   <i name="EMAX">    -10.00000000</i>
   <i name="EFERMI">      0.00000000</i>
  </separator>
  <separator name="writing" >
   <i type="int" name="NWRITE">     2</i>
   <i type="logical" name="LWAVE"> F  </i>
   <i type="logical" name="LDOWNSAMPLE"> F  </i>
   <i type="logical" name="LCHARG"> F  </i>
   <i type="logical" name="LPARD"> F  </i>
   <i type="logical" name="LVTOT"> F  </i>
   <i type="logical" name="LVHAR"> F  </i>
   <i type="logical" name="LELF"> F  </i>
   <i type="logical" name="LOPTICS"> F  </i>
   <v name="STM">      0.00000000      0.00000000      0.00000000      0.00000000      0.00000000      0.00000000      0.00000000</v>
  </separator>
  <separator name="performance" >
   <i type="int" name="NPAR">    24</i>
   <i type="int" name="NSIM">     4</i>
   <i type="int" name="NBLK">    -1</i>
   <i type="logical" name="LPLANE"> T  </i>
   <i type="logical" name="LSCALAPACK"> T  </i>
   <i type="logical" name="LSCAAWARE"> F  </i>
   <i type="logical" name="LSCALU"> F  </i>
   <i type="logical" name="LASYNC"> F  </i>
   <i type="logical" name="LORBITALREAL"> F  </i>
  </separator>
  <separator name="miscellaneous" >
   <i type="int" name="IDIOT">     3</i>
   <i type="int" name="ISPECIAL">     0</i>
   <i type="logical" name="LMUSIC"> F  </i>
   <v name="POMASS">    192.22000000    195.08000000    196.96600000</v>
   <v name="DARWINR">      0.00000000      0.00000000      0.00000000</v>
   <v name="DARWINV">      1.00000000      1.00000000      1.00000000</v>
   <i type="logical" name="LCORR"> T  </i>
  </separator>
  <i type="logical" name="GGA_COMPAT"> T  </i>
  <i type="logical" name="LBERRY"> F  </i>
  <i type="int" name="ICORELEVEL">     0</i>
  <i type="logical" name="LDAU"> F  </i>
  <i type="int" name="I_CONSTRAINED_M">     0</i>
  <separator name="electronic exchange-correlation" >
   <i type="string" name="GGA">PE</i>
   <i type="int" name="VOSKOWN">     0</i>
   <i type="logical" name="LHFCALC"> F  </i>
   <i type="string" name="PRECFOCK"></i>
   <i type="logical" name="LSYMGRAD"> F  </i>
   <i type="logical" name="LHFONE"> F  </i>
   <i type="logical" name="LRHFCALC"> F  </i>
   <i type="logical" name="LTHOMAS"> F  </i>
   <i type="logical" name="LMODELHF"> F  </i>
   <i name="ENCUT4O">     -1.00000000</i>
   <i type="int" name="EXXOEP">     0</i>
   <i type="int" name="FOURORBIT">     0</i>
   <i name="AEXX">      0.00000000</i>
   <i name="HFALPHA">      0.00000000</i>
   <i name="MCALPHA">      0.00000000</i>
   <i name="ALDAX">      1.00000000</i>
   <i name="AGGAX">      1.00000000</i>
   <i name="ALDAC">      1.00000000</i>
   <i name="AGGAC">      1.00000000</i>
   <i type="int" name="NKREDX">     1</i>
   <i type="int" name="NKREDY">     1</i>
   <i type="int" name="NKREDZ">     1</i>
   <i type="logical" name="SHIFTRED"> F  </i>
   <i type="logical" name="ODDONLY"> F  </i>
   <i type="logical" name="EVENONLY"> F  </i>
   <i type="int" name="LMAXFOCK">     0</i>
   <i type="int" name="NMAXFOCKAE">     0</i>
   <i type="logical" name="LFOCKAEDFT"> F  </i>
   <i name="HFSCREEN">      0.00000000</i>
   <i name="HFSCREENC">      0.00000000</i>
   <i type="int" name="NBANDSGWLOW">     0</i>
  </separator>
  <separator name="vdW DFT" >
   <i type="logical" name="LUSE_VDW"> F  </i>
   <i name="Zab_VDW">     -0.84910000</i>
   <i name="PARAM1">      0.12340000</i>
   <i name="PARAM2">      1.00000000</i>
   <i name="PARAM3">      0.00000000</i>
  </separator>
  <separator name="model GW" >
   <i type="int" name="MODEL_GW">     0</i>
   <i name="MODEL_EPS0">     30.90479278</i>
   <i name="MODEL_ALPHA">      1.00000000</i>
  </separator>
  <separator name="linear response parameters" >
   <i type="logical" name="LEPSILON"> F  </i>
   <i type="logical" name="LRPA"> F  </i>
   <i type="logical" name="LNABLA"> F  </i>
   <i type="logical" name="LVEL"> F  </i>
   <i type="int" name="KINTER">     0</i>
   <i name="CSHIFT">      0.10000000</i>
   <i name="OMEGAMAX">     -1.00000000</i>
   <i name="DEG_THRESHOLD">      0.00200000</i>
   <i name="RTIME">     -0.10000000</i>
   <i name="WPLASMAI">      0.00000000</i>
   <v name="DFIELD">      0.00000000      0.00000000      0.00000000</v>
   <v name="WPLASMA">      0.00000000      0.00000000      0.00000000      0.00000000      0.00000000      0.00000000      0.00000000      0.00000000      0.00000000</v>
  </separator>
  <separator name="orbital magnetization" >
   <i type="logical" name="NUCIND"> F  </i>
   <v name="MAGPOS">      0.00000000      0.00000000      0.00000000</v>
   <i type="logical" name="LNICSALL"> T  </i>
   <i type="logical" name="ORBITALMAG"> F  </i>
   <i type="logical" name="LMAGBLOCH"> F  </i>
   <i type="logical" name="LCHIMAG"> F  </i>
   <i type="logical" name="LGAUGE"> T  </i>
   <i type="int" name="MAGATOM">     0</i>
   <v name="MAGDIPOL">      0.00000000      0.00000000      0.00000000</v>
   <v name="AVECCONST">      0.00000000      0.00000000      0.00000000</v>
  </separator>
  <separator name="response functions" >
   <i type="logical" name="LADDER"> F  </i>
   <i type="logical" name="LRPAFORCE"> F  </i>
   <i type="logical" name="LFXC"> F  </i>
   <i type="logical" name="LHARTREE"> T  </i>
   <i type="int" name="IBSE">     0</i>
   <v type="int" name="KPOINT">    -1     0     0     0</v>
   <i type="logical" name="LTCTE"> F  </i>
   <i type="logical" name="LTETE"> F  </i>
   <i type="logical" name="LTRIPLET"> F  </i>
   <i type="logical" name="LFXCEPS"> F  </i>
   <i type="logical" name="LFXHEG"> F  </i>
   <i type="int" name="NATURALO">     2</i>
   <i type="logical" name="L2ORDER"> F  </i>
   <i type="logical" name="LMP2LT"> F  </i>
   <i type="logical" name="LUSEW"> F  </i>
   <i name="ENCUTGW">     -2.00000000</i>
   <i name="ENCUTGWSOFT">     -2.00000000</i>
   <i name="ENCUTLF">     -1.00000000</i>
   <i type="int" name="LMAXMP2">    -1</i>
   <i name="SCISSOR">      0.00000000</i>
   <i type="int" name="NOMEGA">     0</i>
   <i type="int" name="NOMEGAR">     0</i>
   <i type="int" name="NBANDSGW">    -1</i>
   <i type="int" name="NBANDSO">    -1</i>
   <i type="int" name="NBANDSV">    -1</i>
   <i type="int" name="NELM">     1</i>
   <i type="int" name="NELMHF">     1</i>
   <i type="int" name="DIM">     3</i>
   <i type="int" name="ANTIRES">     0</i>
   <i name="OMEGAMAX">    -30.00000000</i>
   <i name="OMEGAMIN">    -30.00000000</i>
   <i name="OMEGATL">   -200.00000000</i>
   <i type="int" name="OMEGAGRID">   140</i>
   <i name="CSHIFT">     -0.10000000</i>
   <i type="logical" name="SELFENERGY"> F  </i>
   <i type="logical" name="LSPECTRAL"> F  </i>
   <i type="logical" name="LSPECTRALGW"> F  </i>
   <i type="logical" name="LSINGLES"> F  </i>
   <i type="logical" name="LFERMIGW"> F  </i>
   <i type="logical" name="ODDONLYGW"> F  </i>
   <i type="logical" name="EVENONLYGW"> F  </i>
   <i type="int" name="NKREDLFX">     1</i>
   <i type="int" name="NKREDLFY">     1</i>
   <i type="int" name="NKREDLFZ">     1</i>
   <i type="int" name="MAXMEM">  2800</i>
   <i type="int" name="TELESCOPE">     0</i>
   <i type="int" name="TAUPAR">     1</i>
   <i type="int" name="OMEGAPAR">    -1</i>
   <i name="LAMBDA">      1.00000000</i>
  </separator>
  <separator name="External order field" >
   <i name="OFIELD_KAPPA">      0.00000000</i>
   <v name="OFIELD_K">      0.00000000      0.00000000      0.00000000</v>
   <i name="OFIELD_Q6_NEAR">      0.00000000</i>
   <i name="OFIELD_Q6_FAR">      0.00000000</i>
   <i name="OFIELD_A">      0.00000000</i>
  </separator>
 </parameters>
 <atominfo>
  <atoms>      16 </atoms>
  <types>       3 </types>
  <array name="atoms" >
   <dimension dim="1">ion</dimension>
   <field type="string">element</field>
   <field type="int">atomtype</field>
   <set>
    <rc><c>Ir</c><c>   1</c></rc>
    <rc><c>Pt</c><c>   2</c></rc>
    <rc><c>Pt</c><c>   2</c></rc>
    <rc><c>Pt</c><c>   2</c></rc>
    <rc><c>Pt</c><c>   2</c></rc>
    <rc><c>Pt</c><c>   2</c></rc>
    <rc><c>Pt</c><c>   2</c></rc>
    <rc><c>Pt</c><c>   2</c></rc>
    <rc><c>Pt</c><c>   2</c></rc>
    <rc><c>Pt</c><c>   2</c></rc>
    <rc><c>Pt</c><c>   2</c></rc>
    <rc><c>Pt</c><c>   2</c></rc>
    <rc><c>Pt</c><c>   2</c></rc>
    <rc><c>Pt</c><c>   2</c></rc>
    <rc><c>Pt</c><c>   2</c></rc>
    <rc><c>Au</c><c>   3</c></rc>
   </set>
  </array>
  <array name="atomtypes" >
   <dimension dim="1">type</dimension>
   <field type="int">atomspertype</field>
   <field type="string">element</field>
   <field>mass</field>
   <field>valence</field>
   <field type="string">pseudopotential</field>
   <set>
    <rc><c>   1</c><c>Ir</c><c>    192.22000000</c><c>      9.00000000</c><c>  PAW_PBE Ir 06Sep2000                  </c></rc>
    <rc><c>  14</c><c>Pt</c><c>    195.08000000</c><c>     10.00000000</c><c>  PAW_PBE Pt 04Feb2005                  </c></rc>
    <rc><c>   1</c><c>Au</c><c>    196.96600000</c><c>     11.00000000</c><c>  PAW_PBE Au 04Oct2007                  </c></rc>
   </set>
  </array>
 </atominfo>
 <structure name="initialpos" >
  <crystal>
   <varray name="basis" >
    <v>       5.55785930       0.00000000       0.00000000 </v>
    <v>       2.77892965       4.81324734       0.00000000 </v>
    <v>       0.00000000       0.00000000      30.80695967 </v>
   </varray>
   <i name="volume">    824.12780743 </i>
   <varray name="rec_basis" >
    <v>       0.17992539      -0.10387997       0.00000000 </v>
    <v>       0.00000000       0.20775994       0.00000000 </v>
    <v>       0.00000000       0.00000000       0.03246020 </v>
   </varray>
  </crystal>
  <varray name="positions" >
   <v>       0.00000000       0.00000000       0.38952237 </v>
   <v>       0.50000000       0.00000000       0.38952237 </v>
   <v>       0.00000000       0.50000000       0.38952237 </v>
   <v>       0.50000000       0.50000000       0.38952237 </v>
   <v>       0.16666667       0.16666667       0.46468540 </v>
   <v>       0.66666667       0.16666667       0.46468540 </v>
   <v>       0.16666667       0.66666667       0.46468540 </v>
   <v>       0.66666667       0.66666667       0.46468540 </v>
   <v>       0.83333333       0.33333333       0.53920296 </v>
   <v>       0.33333333       0.33333333       0.53920296 </v>
   <v>       0.83333333       0.83333333       0.53920296 </v>
   <v>       0.33333333       0.83333333       0.53920296 </v>
   <v>       0.00000000       0.00000000       0.61486043 </v>
   <v>       0.50000000       0.00000000       0.61486043 </v>
   <v>       0.50000000       0.50000000       0.61486043 </v>
   <v>       0.00000000       0.50000000       0.61486043 </v>
  </varray>
  <varray name="selective"  type="logical" >
   <v type="logical" >  F  F  F </v>
   <v type="logical" >  F  F  F </v>
   <v type="logical" >  F  F  F </v>
   <v type="logical" >  F  F  F </v>
   <v type="logical" >  T  T  T </v>
   <v type="logical" >  T  T  T </v>
   <v type="logical" >  T  T  T </v>
   <v type="logical" >  T  T  T </v>
   <v type="logical" >  T  T  T </v>
   <v type="logical" >  T  T  T </v>
   <v type="logical" >  T  T  T </v>
   <v type="logical" >  T  T  T </v>
   <v type="logical" >  T  T  T </v>
   <v type="logical" >  T  T  T </v>
   <v type="logical" >  T  T  T </v>
   <v type="logical" >  T  T  T </v>
  </varray>
  <nose>
   <v>      -3.00000000       0.00000000       0.00010000       0.00010000 </v>
  </nose>
 </structure>
 <calculation>
  <scstep>
   <time name="dav">    9.04    9.04</time>
   <time name="total">    9.07    9.07</time>
   <energy>
    <i name="alphaZ">    303.52543553 </i>
    <i name="ewald">  98433.56053661 </i>
    <i name="hartreedc">-110505.05101069 </i>
    <i name="XCdc">     46.26589279 </i>
    <i name="pawpsdc">  11171.21661038 </i>
    <i name="pawaedc"> -10711.84633960 </i>
    <i name="eentropy">     -0.00669584 </i>
    <i name="bandstr">    546.28501096 </i>
    <i name="atom">  11693.69420960 </i>
    <i name="e_fr_energy">    977.64364973 </i>
    <i name="e_wo_entrp">    977.65034557 </i>
    <i name="e_0_energy">    977.64588168 </i>
   </energy>
  </scstep>
  <scstep>
   <time name="dav">   12.85   12.86</time>
   <time name="total">   12.86   12.86</time>
   <energy>
    <i name="e_fr_energy">    -38.62148737 </i>
    <i name="e_wo_entrp">    -38.61901958 </i>
    <i name="e_0_energy">    -38.62066477 </i>
   </energy>
  </scstep>
  <scstep>
   <time name="dav">   11.16   11.17</time>
   <time name="total">   11.17   11.17</time>
   <energy>
    <i name="e_fr_energy">    -97.01163645 </i>
    <i name="e_wo_entrp">    -96.98622081 </i>
    <i name="e_0_energy">    -97.00316457 </i>
   </energy>
  </scstep>
  <scstep>
   <time name="dav">   12.37   12.38</time>
   <time name="total">   12.38   12.38</time>
   <energy>
    <i name="e_fr_energy">    -98.25370293 </i>
    <i name="e_wo_entrp">    -98.22769028 </i>
    <i name="e_0_energy">    -98.24503204 </i>
   </energy>
  </scstep>
  <scstep>
   <time name="dav">   13.36   13.36</time>
   <time name="total">   13.68   13.68</time>
   <energy>
    <i name="e_fr_energy">    -98.28967761 </i>
    <i name="e_wo_entrp">    -98.26368415 </i>
    <i name="e_0_energy">    -98.28101312 </i>
   </energy>
  </scstep>
  <scstep>
   <time name="dav">   10.49   10.50</time>
   <time name="total">   10.84   10.84</time>
   <energy>
    <i name="e_fr_energy">    -94.28815349 </i>
    <i name="e_wo_entrp">    -94.25922031 </i>
    <i name="e_0_energy">    -94.27850910 </i>
   </energy>
  </scstep>
  <scstep>
   <time name="dav">   11.00   11.00</time>
   <time name="total">   11.34   11.35</time>
   <energy>
    <i name="e_fr_energy">   -118.73452735 </i>
    <i name="e_wo_entrp">   -118.73870664 </i>
    <i name="e_0_energy">   -118.73592045 </i>
   </energy>
  </scstep>
  <scstep>
   <time name="dav">   12.85   12.86</time>
   <time name="total">   13.19   13.20</time>
   <energy>
    <i name="e_fr_energy">    -95.11173896 </i>
    <i name="e_wo_entrp">    -95.07171736 </i>
    <i name="e_0_energy">    -95.09839843 </i>
   </energy>
  </scstep>
  <scstep>
   <time name="dav">   10.45   10.45</time>
   <time name="total">   10.79   10.80</time>
   <energy>
    <i name="e_fr_energy">    -94.29403352 </i>
    <i name="e_wo_entrp">    -94.26580023 </i>
    <i name="e_0_energy">    -94.28462242 </i>
   </energy>
  </scstep>
  <scstep>
   <time name="dav">   13.44   13.44</time>
   <time name="total">   13.78   13.78</time>
   <energy>
    <i name="e_fr_energy">    -93.30190614 </i>
    <i name="e_wo_entrp">    -93.29776618 </i>
    <i name="e_0_energy">    -93.30052615 </i>
   </energy>
  </scstep>
  <scstep>
   <time name="dav">   12.10   12.11</time>
   <time name="total">   12.44   12.45</time>
   <energy>
    <i name="e_fr_energy">    -92.22957623 </i>
    <i name="e_wo_entrp">    -92.19467272 </i>
    <i name="e_0_energy">    -92.21794173 </i>
   </energy>
  </scstep>
  <scstep>
   <time name="dav">   10.64   10.64</time>
   <time name="total">   10.98   10.99</time>
   <energy>
    <i name="e_fr_energy">    -92.18598805 </i>
    <i name="e_wo_entrp">    -92.13334695 </i>
    <i name="e_0_energy">    -92.16844102 </i>
   </energy>
  </scstep>
  <scstep>
   <time name="dav">   12.09   12.09</time>
   <time name="total">   12.43   12.43</time>
   <energy>
    <i name="e_fr_energy">    -92.06360279 </i>
    <i name="e_wo_entrp">    -92.02860185 </i>
    <i name="e_0_energy">    -92.05193581 </i>
   </energy>
  </scstep>
  <scstep>
   <time name="dav">   13.84   13.84</time>
   <time name="total">   14.18   14.18</time>
   <energy>
    <i name="e_fr_energy">    -92.06387679 </i>
    <i name="e_wo_entrp">    -92.02592201 </i>
    <i name="e_0_energy">    -92.05122520 </i>
   </energy>
  </scstep>
  <scstep>
   <time name="dav">   11.15   11.15</time>
   <time name="total">   11.49   11.49</time>
   <energy>
    <i name="e_fr_energy">    -92.07211407 </i>
    <i name="e_wo_entrp">    -92.03543889 </i>
    <i name="e_0_energy">    -92.05988901 </i>
   </energy>
  </scstep>
  <scstep>
   <time name="dav">   10.71   10.71</time>
   <time name="total">   11.05   11.05</time>
   <energy>
    <i name="e_fr_energy">    -92.04058981 </i>
    <i name="e_wo_entrp">    -92.00307721 </i>
    <i name="e_0_energy">    -92.02808561 </i>
   </energy>
  </scstep>
  <scstep>
   <time name="dav">   12.52   12.52</time>
   <time name="total">   12.86   12.87</time>
   <energy>
    <i name="e_fr_energy">    -92.03454245 </i>
    <i name="e_wo_entrp">    -91.99403492 </i>
    <i name="e_0_energy">    -92.02103994 </i>
   </energy>
  </scstep>
  <scstep>
   <time name="dav">   10.25   10.25</time>
   <time name="total">   10.59   10.59</time>
   <energy>
    <i name="e_fr_energy">    -92.03361080 </i>
    <i name="e_wo_entrp">    -91.99305046 </i>
    <i name="e_0_energy">    -92.02009069 </i>
   </energy>
  </scstep>
  <scstep>
   <time name="dav">   11.60   11.60</time>
   <time name="total">   11.94   11.94</time>
   <energy>
    <i name="e_fr_energy">    -92.03345048 </i>
    <i name="e_wo_entrp">    -91.99305521 </i>
    <i name="e_0_energy">    -92.01998539 </i>
   </energy>
  </scstep>
  <scstep>
   <time name="dav">   10.53   10.53</time>
   <time name="total">   10.87   10.87</time>
   <energy>
    <i name="e_fr_energy">    -92.03343983 </i>
    <i name="e_wo_entrp">    -91.99320596 </i>
    <i name="e_0_energy">    -92.02002854 </i>
   </energy>
  </scstep>
  <scstep>
   <time name="dav">   10.32   10.32</time>
   <time name="total">   10.66   10.66</time>
   <energy>
    <i name="e_fr_energy">    -92.03341099 </i>
    <i name="e_wo_entrp">    -91.99324517 </i>
    <i name="e_0_energy">    -92.02002239 </i>
   </energy>
  </scstep>
  <scstep>
   <time name="dav">    9.41    9.41</time>
   <time name="total">    9.75    9.75</time>
   <energy>
    <i name="e_fr_energy">    -92.03337634 </i>
    <i name="e_wo_entrp">    -91.99315664 </i>
    <i name="e_0_energy">    -92.01996977 </i>
   </energy>
  </scstep>
  <scstep>
   <time name="dav">    7.25    7.25</time>
   <time name="total">    7.27    7.28</time>
   <energy>
    <i name="alphaZ">    303.52543553 </i>
    <i name="ewald">  98433.56053661 </i>
    <i name="hartreedc">-110336.28660398 </i>
    <i name="XCdc">     40.60320500 </i>
    <i name="pawpsdc">  14190.67585362 </i>
    <i name="pawaedc"> -13775.66391156 </i>
    <i name="eentropy">     -0.04017445 </i>
    <i name="bandstr">   -642.10192479 </i>
    <i name="atom">  11693.69420960 </i>
    <i name="e_fr_energy">    -92.03337442 </i>
    <i name="e_wo_entrp">    -91.99319997 </i>
    <i name="e_0_energy">    -92.01998294 </i>
   </energy>
  </scstep>
  <dipole>
   <v name="dipole">      0.00000000       0.00000000      -0.01961880 </v>
   <i name="Tr[quadrupol]">   -958.89863234 </i>
   <i name="Echarged">      0.00000000 </i>
   <i name="Edipol_quadrupol">      0.00000000 </i>
   <i name="Eion">      0.00000000 </i>
  </dipole>
  <structure>
   <crystal>
    <varray name="basis" >
     <v>       5.55785930       0.00000000       0.00000000 </v>
     <v>       2.77892965       4.81324734       0.00000000 </v>
     <v>       0.00000000       0.00000000      30.80695967 </v>
    </varray>
    <i name="volume">    824.12780743 </i>
    <varray name="rec_basis" >
     <v>       0.17992539      -0.10387997       0.00000000 </v>
     <v>       0.00000000       0.20775994       0.00000000 </v>
     <v>       0.00000000       0.00000000       0.03246020 </v>
    </varray>
   </crystal>
   <varray name="positions" >
    <v>       0.00000000       0.00000000       0.38952237 </v>
    <v>       0.50000000       0.00000000       0.38952237 </v>
    <v>       0.00000000       0.50000000       0.38952237 </v>
    <v>       0.50000000       0.50000000       0.38952237 </v>
    <v>       0.16666667       0.16666667       0.46468540 </v>
    <v>       0.66666667       0.16666667       0.46468540 </v>
    <v>       0.16666667       0.66666667       0.46468540 </v>
    <v>       0.66666667       0.66666667       0.46468540 </v>
    <v>       0.83333333       0.33333333       0.53920296 </v>
    <v>       0.33333333       0.33333333       0.53920296 </v>
    <v>       0.83333333       0.83333333       0.53920296 </v>
    <v>       0.33333333       0.83333333       0.53920296 </v>
    <v>       0.00000000       0.00000000       0.61486043 </v>
    <v>       0.50000000       0.00000000       0.61486043 </v>
    <v>       0.50000000       0.50000000       0.61486043 </v>
    <v>       0.00000000       0.50000000       0.61486043 </v>
   </varray>
  </structure>
  <varray name="forces" >
   <v>       0.03951484      -0.02281390       1.07097103 </v>
   <v>      -0.03634122       0.01335043      -0.16837199 </v>
   <v>       0.01591675      -0.00918954      -0.15295719 </v>
   <v>      -0.02973242       0.02479720      -0.16837199 </v>
   <v>      -0.14138538      -0.08461490      -0.22307095 </v>
   <v>       0.14596016      -0.08427014      -0.49378283 </v>
   <v>       0.00258596       0.16475078      -0.22307095 </v>
   <v>       0.00145916      -0.00084244       0.11681639 </v>
   <v>      -0.13524959      -0.07994786      -0.10620667 </v>
   <v>       0.13603240      -0.07853834      -0.32030080 </v>
   <v>       0.00161208       0.15710352      -0.10620667 </v>
   <v>      -0.00646469       0.00373239       0.15358151 </v>
   <v>       0.01145554      -0.00661386      -0.14266157 </v>
   <v>      -0.00281112       0.01998284      -0.14804815 </v>
   <v>      -0.01871120      -0.00755692      -0.14804815 </v>
   <v>       0.01615874      -0.00932925       1.05972899 </v>
  </varray>
  <varray name="stress" >
   <v>     -21.87922377       0.04191087       0.08689028 </v>
   <v>       0.04191087     -21.83082927      -0.05016613 </v>
   <v>       0.08689070      -0.05016637      -0.86462313 </v>
  </varray>
  <energy>
   <i name="e_fr_energy">    -92.03333216 </i>
   <i name="e_wo_entrp">    -92.01994068 </i>
   <i name="e_0_energy">     -0.04017445 </i>
  </energy>
  <time name="totalsc">  278.13  278.22</time>
  <eigenvalues>
   <array>
    <dimension dim="1">band</dimension>
    <dimension dim="2">kpoint</dimension>
    <dimension dim="3">spin</dimension>
    <field>eigene</field>
    <field>occ</field>
    <set>
     <set comment="spin 1">
      <set comment="kpoint 1">
       <r>  -10.1933    1.0000 </r>
       <r>   -8.9219    1.0000 </r>
       <r>   -7.8578    1.0000 </r>
       <r>   -7.7400    1.0000 </r>
       <r>   -7.4649    1.0000 </r>
       <r>   -7.4428    1.0000 </r>
       <r>   -7.4336    1.0000 </r>
       <r>   -7.3114    1.0000 </r>
       <r>   -7.2989    1.0000 </r>
       <r>   -7.2857    1.0000 </r>
       <r>   -6.8417    1.0000 </r>
       <r>   -6.8330    1.0000 </r>
       <r>   -6.8282    1.0000 </r>
       <r>   -6.7967    1.0000 </r>
       <r>   -6.7855    1.0000 </r>
       <r>   -6.5964    1.0000 </r>
       <r>   -6.5618    1.0000 </r>
       <r>   -6.5401    1.0000 </r>
       <r>   -6.4826    1.0000 </r>
       <r>   -5.8037    1.0000 </r>
       <r>   -5.7931    1.0000 </r>
       <r>   -5.6870    1.0000 </r>
       <r>   -4.9350    1.0000 </r>
       <r>   -4.9170    1.0000 </r>
       <r>   -4.8106    1.0000 </r>
       <r>   -4.6824    1.0000 </r>
       <r>   -4.6676    1.0000 </r>
       <r>   -4.6538    1.0000 </r>
       <r>   -4.6120    1.0000 </r>
       <r>   -4.5297    1.0000 </r>
       <r>   -4.3750    1.0000 </r>
       <r>   -4.3304    1.0000 </r>
       <r>   -4.2111    1.0000 </r>
       <r>   -4.2007    1.0000 </r>
       <r>   -4.0576    1.0000 </r>
       <r>   -4.0310    1.0000 </r>
       <r>   -3.9989    1.0000 </r>
       <r>   -3.9823    1.0000 </r>
       <r>   -3.9564    1.0000 </r>
       <r>   -3.8500    1.0000 </r>
       <r>   -3.7174    1.0000 </r>
       <r>   -3.6871    1.0000 </r>
       <r>   -3.5044    1.0000 </r>
       <r>   -3.4755    1.0000 </r>
       <r>   -3.3941    1.0000 </r>
       <r>   -3.1938    1.0000 </r>
       <r>   -3.1208    1.0000 </r>
       <r>   -2.9573    1.0000 </r>
       <r>   -2.8944    1.0000 </r>
       <r>   -2.8245    1.0000 </r>
       <r>   -2.7169    1.0000 </r>
       <r>   -2.3596    1.0000 </r>
       <r>   -2.3453    1.0000 </r>
       <r>   -2.1436    1.0000 </r>
       <r>   -2.1168    1.0000 </r>
       <r>   -1.8775    1.0000 </r>
       <r>   -1.8161    1.0000 </r>
       <r>   -1.7072    1.0000 </r>
       <r>   -1.6606    1.0000 </r>
       <r>   -1.5909    1.0000 </r>
       <r>   -1.5355    1.0000 </r>
       <r>   -1.4894    1.0000 </r>
       <r>   -1.3170    1.0011 </r>
       <r>   -1.1816    1.0133 </r>
       <r>   -1.1384    1.0224 </r>
       <r>   -1.0981    1.0313 </r>
       <r>   -1.0642    1.0354 </r>
       <r>   -1.0031    1.0173 </r>
       <r>   -0.9496    0.9488 </r>
       <r>   -0.9014    0.8284 </r>
       <r>   -0.8215    0.5249 </r>
       <r>   -0.7868    0.3794 </r>
       <r>   -0.7720    0.3202 </r>
       <r>   -0.7449    0.2203 </r>
       <r>   -0.7093    0.1129 </r>
       <r>   -0.7038    0.0992 </r>
       <r>   -0.6701    0.0308 </r>
       <r>   -0.5337   -0.0314 </r>
       <r>   -0.5265   -0.0300 </r>
       <r>   -0.4954   -0.0230 </r>
       <r>   -0.3671   -0.0034 </r>
       <r>   -0.1994   -0.0001 </r>
       <r>   -0.0836   -0.0000 </r>
       <r>   -0.0116   -0.0000 </r>
       <r>    0.0272   -0.0000 </r>
       <r>    0.0661   -0.0000 </r>
       <r>    0.3198   -0.0000 </r>
       <r>    0.4447   -0.0000 </r>
       <r>    1.1949   -0.0000 </r>
       <r>    1.4843   -0.0000 </r>
       <r>    1.6239   -0.0000 </r>
       <r>    1.6259   -0.0000 </r>
       <r>    1.7290   -0.0000 </r>
       <r>    1.8040   -0.0000 </r>
       <r>    2.5751   -0.0000 </r>
       <r>    2.5873   -0.0000 </r>
      </set>
      <set comment="kpoint 2">
       <r>  -10.1933    1.0000 </r>
       <r>   -8.9219    1.0000 </r>
       <r>   -7.8578    1.0000 </r>
       <r>   -7.7399    1.0000 </r>
       <r>   -7.4655    1.0000 </r>
       <r>   -7.4393    1.0000 </r>
       <r>   -7.4363    1.0000 </r>
       <r>   -7.3110    1.0000 </r>
       <r>   -7.2992    1.0000 </r>
       <r>   -7.2858    1.0000 </r>
       <r>   -6.8416    1.0000 </r>
       <r>   -6.8349    1.0000 </r>
       <r>   -6.8263    1.0000 </r>
       <r>   -6.7979    1.0000 </r>
       <r>   -6.7842    1.0000 </r>
       <r>   -6.5988    1.0000 </r>
       <r>   -6.5644    1.0000 </r>
       <r>   -6.5325    1.0000 </r>
       <r>   -6.4855    1.0000 </r>
       <r>   -5.8022    1.0000 </r>
       <r>   -5.7944    1.0000 </r>
       <r>   -5.6872    1.0000 </r>
       <r>   -4.9284    1.0000 </r>
       <r>   -4.9230    1.0000 </r>
       <r>   -4.8106    1.0000 </r>
       <r>   -4.6904    1.0000 </r>
       <r>   -4.6614    1.0000 </r>
       <r>   -4.6527    1.0000 </r>
       <r>   -4.6121    1.0000 </r>
       <r>   -4.5291    1.0000 </r>
       <r>   -4.3751    1.0000 </r>
       <r>   -4.3304    1.0000 </r>
       <r>   -4.2133    1.0000 </r>
       <r>   -4.1991    1.0000 </r>
       <r>   -4.0559    1.0000 </r>
       <r>   -4.0333    1.0000 </r>
       <r>   -3.9910    1.0000 </r>
       <r>   -3.9857    1.0000 </r>
       <r>   -3.9602    1.0000 </r>
       <r>   -3.8478    1.0000 </r>
       <r>   -3.7177    1.0000 </r>
       <r>   -3.6876    1.0000 </r>
       <r>   -3.5084    1.0000 </r>
       <r>   -3.4738    1.0000 </r>
       <r>   -3.3934    1.0000 </r>
       <r>   -3.1706    1.0000 </r>
       <r>   -3.1504    1.0000 </r>
       <r>   -2.9416    1.0000 </r>
       <r>   -2.9223    1.0000 </r>
       <r>   -2.7821    1.0000 </r>
       <r>   -2.7405    1.0000 </r>
       <r>   -2.3542    1.0000 </r>
       <r>   -2.3522    1.0000 </r>
       <r>   -2.1303    1.0000 </r>
       <r>   -2.1221    1.0000 </r>
       <r>   -1.8505    1.0000 </r>
       <r>   -1.8486    1.0000 </r>
       <r>   -1.6928    1.0000 </r>
       <r>   -1.6618    1.0000 </r>
       <r>   -1.5869    1.0000 </r>
       <r>   -1.5676    1.0000 </r>
       <r>   -1.5106    1.0000 </r>
       <r>   -1.2845    1.0023 </r>
       <r>   -1.1551    1.0187 </r>
       <r>   -1.1192    1.0268 </r>
       <r>   -1.1097    1.0289 </r>
       <r>   -1.0378    1.0331 </r>
       <r>   -1.0242    1.0290 </r>
       <r>   -1.0021    1.0166 </r>
       <r>   -0.9102    0.8550 </r>
       <r>   -0.8091    0.4726 </r>
       <r>   -0.7968    0.4208 </r>
       <r>   -0.7526    0.2474 </r>
       <r>   -0.7434    0.2154 </r>
       <r>   -0.7057    0.1038 </r>
       <r>   -0.6997    0.0894 </r>
       <r>   -0.6795    0.0471 </r>
       <r>   -0.5333   -0.0313 </r>
       <r>   -0.5193   -0.0285 </r>
       <r>   -0.4945   -0.0228 </r>
       <r>   -0.3536   -0.0026 </r>
       <r>   -0.1974   -0.0001 </r>
       <r>   -0.1109   -0.0000 </r>
       <r>   -0.0274   -0.0000 </r>
       <r>    0.0291   -0.0000 </r>
       <r>    0.0732   -0.0000 </r>
       <r>    0.3694   -0.0000 </r>
       <r>    0.4087   -0.0000 </r>
       <r>    1.1937   -0.0000 </r>
       <r>    1.4863   -0.0000 </r>
       <r>    1.6119   -0.0000 </r>
       <r>    1.6356   -0.0000 </r>
       <r>    1.7642   -0.0000 </r>
       <r>    1.7700   -0.0000 </r>
       <r>    2.5804   -0.0000 </r>
       <r>    2.5831   -0.0000 </r>
      </set>
      <set comment="kpoint 3">
       <r>   -9.9893    1.0000 </r>
       <r>   -8.7204    1.0000 </r>
       <r>   -7.6524    1.0000 </r>
       <r>   -7.5462    1.0000 </r>
       <r>   -7.4461    1.0000 </r>
       <r>   -7.3677    1.0000 </r>
       <r>   -7.2500    1.0000 </r>
       <r>   -7.2289    1.0000 </r>
       <r>   -7.1811    1.0000 </r>
       <r>   -7.1138    1.0000 </r>
       <r>   -6.7502    1.0000 </r>
       <r>   -6.7350    1.0000 </r>
       <r>   -6.7217    1.0000 </r>
       <r>   -6.7167    1.0000 </r>
       <r>   -6.6467    1.0000 </r>
       <r>   -6.4965    1.0000 </r>
       <r>   -6.4357    1.0000 </r>
       <r>   -6.3753    1.0000 </r>
       <r>   -6.3145    1.0000 </r>
       <r>   -5.7400    1.0000 </r>
       <r>   -5.7341    1.0000 </r>
       <r>   -5.6338    1.0000 </r>
       <r>   -4.9712    1.0000 </r>
       <r>   -4.9178    1.0000 </r>
       <r>   -4.8501    1.0000 </r>
       <r>   -4.7377    1.0000 </r>
       <r>   -4.6642    1.0000 </r>
       <r>   -4.5937    1.0000 </r>
       <r>   -4.5823    1.0000 </r>
       <r>   -4.5474    1.0000 </r>
       <r>   -4.4809    1.0000 </r>
       <r>   -4.2195    1.0000 </r>
       <r>   -4.1811    1.0000 </r>
       <r>   -4.1361    1.0000 </r>
       <r>   -4.1074    1.0000 </r>
       <r>   -4.0370    1.0000 </r>
       <r>   -4.0127    1.0000 </r>
       <r>   -3.9834    1.0000 </r>
       <r>   -3.9366    1.0000 </r>
       <r>   -3.8720    1.0000 </r>
       <r>   -3.7972    1.0000 </r>
       <r>   -3.6634    1.0000 </r>
       <r>   -3.6123    1.0000 </r>
       <r>   -3.5592    1.0000 </r>
       <r>   -3.5425    1.0000 </r>
       <r>   -3.4725    1.0000 </r>
       <r>   -3.3061    1.0000 </r>
       <r>   -3.1376    1.0000 </r>
       <r>   -2.9618    1.0000 </r>
       <r>   -2.8160    1.0000 </r>
       <r>   -2.6979    1.0000 </r>
       <r>   -2.4784    1.0000 </r>
       <r>   -2.4363    1.0000 </r>
       <r>   -2.2949    1.0000 </r>
       <r>   -2.1775    1.0000 </r>
       <r>   -2.0280    1.0000 </r>
       <r>   -2.0057    1.0000 </r>
       <r>   -1.9209    1.0000 </r>
       <r>   -1.8501    1.0000 </r>
       <r>   -1.8190    1.0000 </r>
       <r>   -1.7776    1.0000 </r>
       <r>   -1.7107    1.0000 </r>
       <r>   -1.6192    1.0000 </r>
       <r>   -1.5889    1.0000 </r>
       <r>   -1.5200    1.0000 </r>
       <r>   -1.4423    1.0000 </r>
       <r>   -1.2821    1.0024 </r>
       <r>   -1.2173    1.0078 </r>
       <r>   -1.1453    1.0208 </r>
       <r>   -1.0873    1.0332 </r>
       <r>   -1.0403    1.0337 </r>
       <r>   -1.0262    1.0298 </r>
       <r>   -0.9712    0.9841 </r>
       <r>   -0.9466    0.9431 </r>
       <r>   -0.8810    0.7609 </r>
       <r>   -0.8391    0.5985 </r>
       <r>   -0.8120    0.4846 </r>
       <r>   -0.7608    0.2775 </r>
       <r>   -0.7320    0.1782 </r>
       <r>   -0.6481    0.0009 </r>
       <r>   -0.5482   -0.0338 </r>
       <r>   -0.4576   -0.0148 </r>
       <r>   -0.4108   -0.0074 </r>
       <r>   -0.3047   -0.0009 </r>
       <r>   -0.1937   -0.0000 </r>
       <r>    0.1771   -0.0000 </r>
       <r>    0.2669   -0.0000 </r>
       <r>    0.8036   -0.0000 </r>
       <r>    0.8413   -0.0000 </r>
       <r>    1.0928   -0.0000 </r>
       <r>    1.2823   -0.0000 </r>
       <r>    1.6141   -0.0000 </r>
       <r>    2.1354   -0.0000 </r>
       <r>    2.5156   -0.0000 </r>
       <r>    3.0075   -0.0000 </r>
       <r>    3.3614   -0.0000 </r>
      </set>
      <set comment="kpoint 4">
       <r>   -9.9893    1.0000 </r>
       <r>   -8.7204    1.0000 </r>
       <r>   -7.6524    1.0000 </r>
       <r>   -7.5462    1.0000 </r>
       <r>   -7.4460    1.0000 </r>
       <r>   -7.3682    1.0000 </r>
       <r>   -7.2499    1.0000 </r>
       <r>   -7.2295    1.0000 </r>
       <r>   -7.1808    1.0000 </r>
       <r>   -7.1134    1.0000 </r>
       <r>   -6.7500    1.0000 </r>
       <r>   -6.7318    1.0000 </r>
       <r>   -6.7225    1.0000 </r>
       <r>   -6.7200    1.0000 </r>
       <r>   -6.6465    1.0000 </r>
       <r>   -6.4879    1.0000 </r>
       <r>   -6.4420    1.0000 </r>
       <r>   -6.3832    1.0000 </r>
       <r>   -6.3079    1.0000 </r>
       <r>   -5.7479    1.0000 </r>
       <r>   -5.7281    1.0000 </r>
       <r>   -5.6318    1.0000 </r>
       <r>   -4.9813    1.0000 </r>
       <r>   -4.9078    1.0000 </r>
       <r>   -4.8525    1.0000 </r>
       <r>   -4.7257    1.0000 </r>
       <r>   -4.6687    1.0000 </r>
       <r>   -4.5914    1.0000 </r>
       <r>   -4.5841    1.0000 </r>
       <r>   -4.5562    1.0000 </r>
       <r>   -4.4772    1.0000 </r>
       <r>   -4.2146    1.0000 </r>
       <r>   -4.1822    1.0000 </r>
       <r>   -4.1428    1.0000 </r>
       <r>   -4.1049    1.0000 </r>
       <r>   -4.0458    1.0000 </r>
       <r>   -4.0208    1.0000 </r>
       <r>   -3.9873    1.0000 </r>
       <r>   -3.9244    1.0000 </r>
       <r>   -3.8678    1.0000 </r>
       <r>   -3.7915    1.0000 </r>
       <r>   -3.6571    1.0000 </r>
       <r>   -3.6340    1.0000 </r>
       <r>   -3.5537    1.0000 </r>
       <r>   -3.5281    1.0000 </r>
       <r>   -3.4772    1.0000 </r>
       <r>   -3.3042    1.0000 </r>
       <r>   -3.1146    1.0000 </r>
       <r>   -2.9864    1.0000 </r>
       <r>   -2.8360    1.0000 </r>
       <r>   -2.6733    1.0000 </r>
       <r>   -2.4840    1.0000 </r>
       <r>   -2.4261    1.0000 </r>
       <r>   -2.3496    1.0000 </r>
       <r>   -2.1421    1.0000 </r>
       <r>   -2.0454    1.0000 </r>
       <r>   -1.9890    1.0000 </r>
       <r>   -1.9363    1.0000 </r>
       <r>   -1.8489    1.0000 </r>
       <r>   -1.8033    1.0000 </r>
       <r>   -1.7218    1.0000 </r>
       <r>   -1.7116    1.0000 </r>
       <r>   -1.6502    1.0000 </r>
       <r>   -1.5608    1.0000 </r>
       <r>   -1.5424    1.0000 </r>
       <r>   -1.4422    1.0000 </r>
       <r>   -1.2934    1.0019 </r>
       <r>   -1.2277    1.0065 </r>
       <r>   -1.1619    1.0172 </r>
       <r>   -1.0996    1.0310 </r>
       <r>   -1.0579    1.0354 </r>
       <r>   -0.9931    1.0091 </r>
       <r>   -0.9703    0.9829 </r>
       <r>   -0.9270    0.8997 </r>
       <r>   -0.8568    0.6702 </r>
       <r>   -0.8470    0.6308 </r>
       <r>   -0.8304    0.5621 </r>
       <r>   -0.7826    0.3622 </r>
       <r>   -0.6987    0.0871 </r>
       <r>   -0.6538    0.0077 </r>
       <r>   -0.5911   -0.0336 </r>
       <r>   -0.4705   -0.0174 </r>
       <r>   -0.3641   -0.0032 </r>
       <r>   -0.2980   -0.0008 </r>
       <r>   -0.1960   -0.0001 </r>
       <r>    0.1755   -0.0000 </r>
       <r>    0.2590   -0.0000 </r>
       <r>    0.8074   -0.0000 </r>
       <r>    0.8424   -0.0000 </r>
       <r>    1.0914   -0.0000 </r>
       <r>    1.2803   -0.0000 </r>
       <r>    1.6155   -0.0000 </r>
       <r>    2.1341   -0.0000 </r>
       <r>    2.5162   -0.0000 </r>
       <r>    3.0077   -0.0000 </r>
       <r>    3.3627   -0.0000 </r>
      </set>
      <set comment="kpoint 5">
       <r>   -9.9893    1.0000 </r>
       <r>   -8.7204    1.0000 </r>
       <r>   -7.6524    1.0000 </r>
       <r>   -7.5462    1.0000 </r>
       <r>   -7.4461    1.0000 </r>
       <r>   -7.3679    1.0000 </r>
       <r>   -7.2500    1.0000 </r>
       <r>   -7.2291    1.0000 </r>
       <r>   -7.1808    1.0000 </r>
       <r>   -7.1138    1.0000 </r>
       <r>   -6.7501    1.0000 </r>
       <r>   -6.7326    1.0000 </r>
       <r>   -6.7257    1.0000 </r>
       <r>   -6.7146    1.0000 </r>
       <r>   -6.6482    1.0000 </r>
       <r>   -6.4932    1.0000 </r>
       <r>   -6.4335    1.0000 </r>
       <r>   -6.3846    1.0000 </r>
       <r>   -6.3097    1.0000 </r>
       <r>   -5.7456    1.0000 </r>
       <r>   -5.7293    1.0000 </r>
       <r>   -5.6330    1.0000 </r>
       <r>   -4.9776    1.0000 </r>
       <r>   -4.9115    1.0000 </r>
       <r>   -4.8513    1.0000 </r>
       <r>   -4.7292    1.0000 </r>
       <r>   -4.6681    1.0000 </r>
       <r>   -4.5965    1.0000 </r>
       <r>   -4.5823    1.0000 </r>
       <r>   -4.5492    1.0000 </r>
       <r>   -4.4800    1.0000 </r>
       <r>   -4.2182    1.0000 </r>
       <r>   -4.1814    1.0000 </r>
       <r>   -4.1340    1.0000 </r>
       <r>   -4.1105    1.0000 </r>
       <r>   -4.0414    1.0000 </r>
       <r>   -4.0085    1.0000 </r>
       <r>   -3.9920    1.0000 </r>
       <r>   -3.9329    1.0000 </r>
       <r>   -3.8687    1.0000 </r>
       <r>   -3.7957    1.0000 </r>
       <r>   -3.6530    1.0000 </r>
       <r>   -3.6269    1.0000 </r>
       <r>   -3.5554    1.0000 </r>
       <r>   -3.5389    1.0000 </r>
       <r>   -3.4808    1.0000 </r>
       <r>   -3.2864    1.0000 </r>
       <r>   -3.1519    1.0000 </r>
       <r>   -2.9544    1.0000 </r>
       <r>   -2.8337    1.0000 </r>
       <r>   -2.6856    1.0000 </r>
       <r>   -2.4751    1.0000 </r>
       <r>   -2.4394    1.0000 </r>
       <r>   -2.3178    1.0000 </r>
       <r>   -2.1627    1.0000 </r>
       <r>   -2.0293    1.0000 </r>
       <r>   -2.0075    1.0000 </r>
       <r>   -1.8950    1.0000 </r>
       <r>   -1.8759    1.0000 </r>
       <r>   -1.8135    1.0000 </r>
       <r>   -1.7642    1.0000 </r>
       <r>   -1.6989    1.0000 </r>
       <r>   -1.6453    1.0000 </r>
       <r>   -1.5691    1.0000 </r>
       <r>   -1.5239    1.0000 </r>
       <r>   -1.4520    1.0000 </r>
       <r>   -1.2818    1.0024 </r>
       <r>   -1.2058    1.0093 </r>
       <r>   -1.1597    1.0177 </r>
       <r>   -1.0768    1.0346 </r>
       <r>   -1.0591    1.0354 </r>
       <r>   -1.0293    1.0308 </r>
       <r>   -0.9657    0.9762 </r>
       <r>   -0.9543    0.9575 </r>
       <r>   -0.8614    0.6881 </r>
       <r>   -0.8381    0.5945 </r>
       <r>   -0.8034    0.4485 </r>
       <r>   -0.7674    0.3024 </r>
       <r>   -0.7419    0.2102 </r>
       <r>   -0.6407   -0.0067 </r>
       <r>   -0.5669   -0.0354 </r>
       <r>   -0.4822   -0.0200 </r>
       <r>   -0.3706   -0.0036 </r>
       <r>   -0.3066   -0.0009 </r>
       <r>   -0.1865   -0.0000 </r>
       <r>    0.1735   -0.0000 </r>
       <r>    0.2581   -0.0000 </r>
       <r>    0.8107   -0.0000 </r>
       <r>    0.8392   -0.0000 </r>
       <r>    1.0936   -0.0000 </r>
       <r>    1.2806   -0.0000 </r>
       <r>    1.6146   -0.0000 </r>
       <r>    2.1342   -0.0000 </r>
       <r>    2.5161   -0.0000 </r>
       <r>    3.0076   -0.0000 </r>
       <r>    3.3615   -0.0000 </r>
      </set>
      <set comment="kpoint 6">
       <r>   -9.5355    1.0000 </r>
       <r>   -8.2844    1.0000 </r>
       <r>   -7.5444    1.0000 </r>
       <r>   -7.2244    1.0000 </r>
       <r>   -7.1320    1.0000 </r>
       <r>   -7.1210    1.0000 </r>
       <r>   -7.1056    1.0000 </r>
       <r>   -6.9096    1.0000 </r>
       <r>   -6.8811    1.0000 </r>
       <r>   -6.8046    1.0000 </r>
       <r>   -6.6714    1.0000 </r>
       <r>   -6.5148    1.0000 </r>
       <r>   -6.4982    1.0000 </r>
       <r>   -6.4551    1.0000 </r>
       <r>   -6.3475    1.0000 </r>
       <r>   -6.2922    1.0000 </r>
       <r>   -6.1330    1.0000 </r>
       <r>   -6.0353    1.0000 </r>
       <r>   -5.9390    1.0000 </r>
       <r>   -5.6085    1.0000 </r>
       <r>   -5.5871    1.0000 </r>
       <r>   -5.5233    1.0000 </r>
       <r>   -5.1062    1.0000 </r>
       <r>   -5.0514    1.0000 </r>
       <r>   -4.9584    1.0000 </r>
       <r>   -4.8587    1.0000 </r>
       <r>   -4.7908    1.0000 </r>
       <r>   -4.7313    1.0000 </r>
       <r>   -4.5383    1.0000 </r>
       <r>   -4.4830    1.0000 </r>
       <r>   -4.4282    1.0000 </r>
       <r>   -4.2991    1.0000 </r>
       <r>   -4.2683    1.0000 </r>
       <r>   -4.2407    1.0000 </r>
       <r>   -4.1439    1.0000 </r>
       <r>   -4.0852    1.0000 </r>
       <r>   -4.0248    1.0000 </r>
       <r>   -3.9339    1.0000 </r>
       <r>   -3.8948    1.0000 </r>
       <r>   -3.8764    1.0000 </r>
       <r>   -3.8376    1.0000 </r>
       <r>   -3.8240    1.0000 </r>
       <r>   -3.7956    1.0000 </r>
       <r>   -3.7745    1.0000 </r>
       <r>   -3.6615    1.0000 </r>
       <r>   -3.5398    1.0000 </r>
       <r>   -3.4437    1.0000 </r>
       <r>   -3.2541    1.0000 </r>
       <r>   -3.0624    1.0000 </r>
       <r>   -3.0085    1.0000 </r>
       <r>   -2.8734    1.0000 </r>
       <r>   -2.8041    1.0000 </r>
       <r>   -2.7371    1.0000 </r>
       <r>   -2.6836    1.0000 </r>
       <r>   -2.6055    1.0000 </r>
       <r>   -2.5860    1.0000 </r>
       <r>   -2.5233    1.0000 </r>
       <r>   -2.4751    1.0000 </r>
       <r>   -2.4213    1.0000 </r>
       <r>   -2.3375    1.0000 </r>
       <r>   -2.2309    1.0000 </r>
       <r>   -2.1554    1.0000 </r>
       <r>   -1.9661    1.0000 </r>
       <r>   -1.9373    1.0000 </r>
       <r>   -1.9020    1.0000 </r>
       <r>   -1.8057    1.0000 </r>
       <r>   -1.6813    1.0000 </r>
       <r>   -1.6112    1.0000 </r>
       <r>   -1.5902    1.0000 </r>
       <r>   -1.5279    1.0000 </r>
       <r>   -1.4796    1.0000 </r>
       <r>   -1.4002    1.0001 </r>
       <r>   -1.2838    1.0023 </r>
       <r>   -1.2380    1.0055 </r>
       <r>   -1.1574    1.0182 </r>
       <r>   -1.1148    1.0278 </r>
       <r>   -1.0806    1.0341 </r>
       <r>   -0.9903    1.0065 </r>
       <r>   -0.8997    0.8232 </r>
       <r>   -0.8347    0.5802 </r>
       <r>   -0.7947    0.4120 </r>
       <r>   -0.7276    0.1646 </r>
       <r>   -0.6284   -0.0172 </r>
       <r>   -0.5086   -0.0261 </r>
       <r>   -0.5039   -0.0250 </r>
       <r>    0.3031   -0.0000 </r>
       <r>    0.3635   -0.0000 </r>
       <r>    0.5436   -0.0000 </r>
       <r>    0.9271   -0.0000 </r>
       <r>    1.7085   -0.0000 </r>
       <r>    1.8864   -0.0000 </r>
       <r>    1.9077   -0.0000 </r>
       <r>    2.2975   -0.0000 </r>
       <r>    2.6603   -0.0000 </r>
       <r>    3.2253   -0.0000 </r>
       <r>    3.9079   -0.0000 </r>
      </set>
      <set comment="kpoint 7">
       <r>   -9.5356    1.0000 </r>
       <r>   -8.2845    1.0000 </r>
       <r>   -7.5445    1.0000 </r>
       <r>   -7.2243    1.0000 </r>
       <r>   -7.1354    1.0000 </r>
       <r>   -7.1187    1.0000 </r>
       <r>   -7.1060    1.0000 </r>
       <r>   -6.9112    1.0000 </r>
       <r>   -6.8795    1.0000 </r>
       <r>   -6.8040    1.0000 </r>
       <r>   -6.6713    1.0000 </r>
       <r>   -6.5161    1.0000 </r>
       <r>   -6.4962    1.0000 </r>
       <r>   -6.4554    1.0000 </r>
       <r>   -6.3428    1.0000 </r>
       <r>   -6.2958    1.0000 </r>
       <r>   -6.1291    1.0000 </r>
       <r>   -6.0487    1.0000 </r>
       <r>   -5.9280    1.0000 </r>
       <r>   -5.6232    1.0000 </r>
       <r>   -5.5787    1.0000 </r>
       <r>   -5.5168    1.0000 </r>
       <r>   -5.1133    1.0000 </r>
       <r>   -5.0516    1.0000 </r>
       <r>   -4.9532    1.0000 </r>
       <r>   -4.8509    1.0000 </r>
       <r>   -4.7988    1.0000 </r>
       <r>   -4.7261    1.0000 </r>
       <r>   -4.5320    1.0000 </r>
       <r>   -4.4849    1.0000 </r>
       <r>   -4.4361    1.0000 </r>
       <r>   -4.2916    1.0000 </r>
       <r>   -4.2806    1.0000 </r>
       <r>   -4.2565    1.0000 </r>
       <r>   -4.1354    1.0000 </r>
       <r>   -4.0887    1.0000 </r>
       <r>   -4.0102    1.0000 </r>
       <r>   -3.9424    1.0000 </r>
       <r>   -3.9062    1.0000 </r>
       <r>   -3.8729    1.0000 </r>
       <r>   -3.8307    1.0000 </r>
       <r>   -3.8228    1.0000 </r>
       <r>   -3.7898    1.0000 </r>
       <r>   -3.7801    1.0000 </r>
       <r>   -3.6342    1.0000 </r>
       <r>   -3.5303    1.0000 </r>
       <r>   -3.4627    1.0000 </r>
       <r>   -3.2519    1.0000 </r>
       <r>   -3.0856    1.0000 </r>
       <r>   -3.0054    1.0000 </r>
       <r>   -2.8884    1.0000 </r>
       <r>   -2.7882    1.0000 </r>
       <r>   -2.7359    1.0000 </r>
       <r>   -2.6802    1.0000 </r>
       <r>   -2.6042    1.0000 </r>
       <r>   -2.5898    1.0000 </r>
       <r>   -2.5437    1.0000 </r>
       <r>   -2.4880    1.0000 </r>
       <r>   -2.4050    1.0000 </r>
       <r>   -2.3363    1.0000 </r>
       <r>   -2.1913    1.0000 </r>
       <r>   -2.1121    1.0000 </r>
       <r>   -2.0676    1.0000 </r>
       <r>   -1.9073    1.0000 </r>
       <r>   -1.8592    1.0000 </r>
       <r>   -1.8266    1.0000 </r>
       <r>   -1.7208    1.0000 </r>
       <r>   -1.6066    1.0000 </r>
       <r>   -1.5512    1.0000 </r>
       <r>   -1.5308    1.0000 </r>
       <r>   -1.4666    1.0000 </r>
       <r>   -1.3964    1.0002 </r>
       <r>   -1.2826    1.0023 </r>
       <r>   -1.2662    1.0033 </r>
       <r>   -1.2054    1.0094 </r>
       <r>   -1.1217    1.0263 </r>
       <r>   -1.0238    1.0289 </r>
       <r>   -0.9850    1.0011 </r>
       <r>   -0.9191    0.8794 </r>
       <r>   -0.8195    0.5164 </r>
       <r>   -0.7578    0.2663 </r>
       <r>   -0.7380    0.1974 </r>
       <r>   -0.6625    0.0192 </r>
       <r>   -0.5526   -0.0343 </r>
       <r>   -0.4603   -0.0153 </r>
       <r>    0.3033   -0.0000 </r>
       <r>    0.3652   -0.0000 </r>
       <r>    0.5405   -0.0000 </r>
       <r>    0.9289   -0.0000 </r>
       <r>    1.6903   -0.0000 </r>
       <r>    1.9047   -0.0000 </r>
       <r>    1.9240   -0.0000 </r>
       <r>    2.2797   -0.0000 </r>
       <r>    2.6588   -0.0000 </r>
       <r>    3.2284   -0.0000 </r>
       <r>    3.9082   -0.0000 </r>
      </set>
      <set comment="kpoint 8">
       <r>   -9.5355    1.0000 </r>
       <r>   -8.2845    1.0000 </r>
       <r>   -7.5445    1.0000 </r>
       <r>   -7.2243    1.0000 </r>
       <r>   -7.1354    1.0000 </r>
       <r>   -7.1186    1.0000 </r>
       <r>   -7.1059    1.0000 </r>
       <r>   -6.9109    1.0000 </r>
       <r>   -6.8795    1.0000 </r>
       <r>   -6.8040    1.0000 </r>
       <r>   -6.6712    1.0000 </r>
       <r>   -6.5149    1.0000 </r>
       <r>   -6.4989    1.0000 </r>
       <r>   -6.4539    1.0000 </r>
       <r>   -6.3491    1.0000 </r>
       <r>   -6.2892    1.0000 </r>
       <r>   -6.1289    1.0000 </r>
       <r>   -6.0504    1.0000 </r>
       <r>   -5.9275    1.0000 </r>
       <r>   -5.6234    1.0000 </r>
       <r>   -5.5784    1.0000 </r>
       <r>   -5.5173    1.0000 </r>
       <r>   -5.1144    1.0000 </r>
       <r>   -5.0498    1.0000 </r>
       <r>   -4.9535    1.0000 </r>
       <r>   -4.8518    1.0000 </r>
       <r>   -4.7977    1.0000 </r>
       <r>   -4.7260    1.0000 </r>
       <r>   -4.5339    1.0000 </r>
       <r>   -4.4891    1.0000 </r>
       <r>   -4.4318    1.0000 </r>
       <r>   -4.2985    1.0000 </r>
       <r>   -4.2764    1.0000 </r>
       <r>   -4.2474    1.0000 </r>
       <r>   -4.1376    1.0000 </r>
       <r>   -4.0892    1.0000 </r>
       <r>   -4.0133    1.0000 </r>
       <r>   -3.9322    1.0000 </r>
       <r>   -3.9039    1.0000 </r>
       <r>   -3.8820    1.0000 </r>
       <r>   -3.8366    1.0000 </r>
       <r>   -3.8148    1.0000 </r>
       <r>   -3.7919    1.0000 </r>
       <r>   -3.7809    1.0000 </r>
       <r>   -3.6372    1.0000 </r>
       <r>   -3.5351    1.0000 </r>
       <r>   -3.4636    1.0000 </r>
       <r>   -3.2507    1.0000 </r>
       <r>   -3.0752    1.0000 </r>
       <r>   -3.0039    1.0000 </r>
       <r>   -2.8913    1.0000 </r>
       <r>   -2.7966    1.0000 </r>
       <r>   -2.7223    1.0000 </r>
       <r>   -2.6928    1.0000 </r>
       <r>   -2.6039    1.0000 </r>
       <r>   -2.5868    1.0000 </r>
       <r>   -2.5298    1.0000 </r>
       <r>   -2.4869    1.0000 </r>
       <r>   -2.3907    1.0000 </r>
       <r>   -2.3574    1.0000 </r>
       <r>   -2.2044    1.0000 </r>
       <r>   -2.1314    1.0000 </r>
       <r>   -2.0318    1.0000 </r>
       <r>   -1.9237    1.0000 </r>
       <r>   -1.8747    1.0000 </r>
       <r>   -1.8270    1.0000 </r>
       <r>   -1.6901    1.0000 </r>
       <r>   -1.6197    1.0000 </r>
       <r>   -1.5637    1.0000 </r>
       <r>   -1.5175    1.0000 </r>
       <r>   -1.4798    1.0000 </r>
       <r>   -1.3662    1.0003 </r>
       <r>   -1.2774    1.0026 </r>
       <r>   -1.2684    1.0031 </r>
       <r>   -1.2148    1.0081 </r>
       <r>   -1.1291    1.0246 </r>
       <r>   -1.0320    1.0317 </r>
       <r>   -0.9837    0.9997 </r>
       <r>   -0.9197    0.8810 </r>
       <r>   -0.8177    0.5086 </r>
       <r>   -0.7636    0.2879 </r>
       <r>   -0.7291    0.1691 </r>
       <r>   -0.6490    0.0020 </r>
       <r>   -0.5612   -0.0351 </r>
       <r>   -0.4624   -0.0158 </r>
       <r>    0.3032   -0.0000 </r>
       <r>    0.3643   -0.0000 </r>
       <r>    0.5416   -0.0000 </r>
       <r>    0.9299   -0.0000 </r>
       <r>    1.6903   -0.0000 </r>
       <r>    1.8936   -0.0000 </r>
       <r>    1.9339   -0.0000 </r>
       <r>    2.2793   -0.0000 </r>
       <r>    2.6602   -0.0000 </r>
       <r>    3.2273   -0.0000 </r>
       <r>    3.9081   -0.0000 </r>
      </set>
      <set comment="kpoint 9">
       <r>   -8.8961    1.0000 </r>
       <r>   -7.9107    1.0000 </r>
       <r>   -7.7224    1.0000 </r>
       <r>   -7.1471    1.0000 </r>
       <r>   -6.7837    1.0000 </r>
       <r>   -6.7723    1.0000 </r>
       <r>   -6.6163    1.0000 </r>
       <r>   -6.5658    1.0000 </r>
       <r>   -6.5570    1.0000 </r>
       <r>   -6.5447    1.0000 </r>
       <r>   -6.4862    1.0000 </r>
       <r>   -6.2477    1.0000 </r>
       <r>   -6.1851    1.0000 </r>
       <r>   -6.0818    1.0000 </r>
       <r>   -6.0587    1.0000 </r>
       <r>   -5.9906    1.0000 </r>
       <r>   -5.8420    1.0000 </r>
       <r>   -5.6869    1.0000 </r>
       <r>   -5.5507    1.0000 </r>
       <r>   -5.4470    1.0000 </r>
       <r>   -5.3846    1.0000 </r>
       <r>   -5.3514    1.0000 </r>
       <r>   -5.3077    1.0000 </r>
       <r>   -5.1991    1.0000 </r>
       <r>   -5.0578    1.0000 </r>
       <r>   -5.0368    1.0000 </r>
       <r>   -4.9839    1.0000 </r>
       <r>   -4.7844    1.0000 </r>
       <r>   -4.7315    1.0000 </r>
       <r>   -4.6893    1.0000 </r>
       <r>   -4.6539    1.0000 </r>
       <r>   -4.5131    1.0000 </r>
       <r>   -4.4601    1.0000 </r>
       <r>   -4.4074    1.0000 </r>
       <r>   -4.3444    1.0000 </r>
       <r>   -4.2382    1.0000 </r>
       <r>   -4.1504    1.0000 </r>
       <r>   -4.0789    1.0000 </r>
       <r>   -3.9810    1.0000 </r>
       <r>   -3.9053    1.0000 </r>
       <r>   -3.8104    1.0000 </r>
       <r>   -3.7738    1.0000 </r>
       <r>   -3.7287    1.0000 </r>
       <r>   -3.7057    1.0000 </r>
       <r>   -3.6251    1.0000 </r>
       <r>   -3.5989    1.0000 </r>
       <r>   -3.5579    1.0000 </r>
       <r>   -3.4845    1.0000 </r>
       <r>   -3.3759    1.0000 </r>
       <r>   -3.3423    1.0000 </r>
       <r>   -3.3102    1.0000 </r>
       <r>   -3.2253    1.0000 </r>
       <r>   -3.1734    1.0000 </r>
       <r>   -3.0264    1.0000 </r>
       <r>   -2.9839    1.0000 </r>
       <r>   -2.9542    1.0000 </r>
       <r>   -2.8669    1.0000 </r>
       <r>   -2.7751    1.0000 </r>
       <r>   -2.7586    1.0000 </r>
       <r>   -2.5530    1.0000 </r>
       <r>   -2.4609    1.0000 </r>
       <r>   -2.3911    1.0000 </r>
       <r>   -2.3578    1.0000 </r>
       <r>   -2.2888    1.0000 </r>
       <r>   -2.2441    1.0000 </r>
       <r>   -2.1510    1.0000 </r>
       <r>   -2.0626    1.0000 </r>
       <r>   -1.9733    1.0000 </r>
       <r>   -1.9384    1.0000 </r>
       <r>   -1.8887    1.0000 </r>
       <r>   -1.8633    1.0000 </r>
       <r>   -1.8035    1.0000 </r>
       <r>   -1.6620    1.0000 </r>
       <r>   -1.4888    1.0000 </r>
       <r>   -1.3204    1.0010 </r>
       <r>   -1.2435    1.0050 </r>
       <r>   -1.2187    1.0076 </r>
       <r>   -1.1417    1.0217 </r>
       <r>   -0.9442    0.9384 </r>
       <r>   -0.8376    0.5924 </r>
       <r>   -0.7951    0.4136 </r>
       <r>   -0.7761    0.3362 </r>
       <r>   -0.6793    0.0467 </r>
       <r>   -0.5287   -0.0304 </r>
       <r>   -0.5026   -0.0247 </r>
       <r>   -0.2154   -0.0001 </r>
       <r>    0.6848   -0.0000 </r>
       <r>    1.0174   -0.0000 </r>
       <r>    1.0561   -0.0000 </r>
       <r>    1.8035   -0.0000 </r>
       <r>    1.9535   -0.0000 </r>
       <r>    2.0535   -0.0000 </r>
       <r>    2.4697   -0.0000 </r>
       <r>    3.0285   -0.0000 </r>
       <r>    3.5688   -0.0000 </r>
       <r>    4.0000   -0.0000 </r>
      </set>
      <set comment="kpoint 10">
       <r>   -8.8963    1.0000 </r>
       <r>   -7.9110    1.0000 </r>
       <r>   -7.7223    1.0000 </r>
       <r>   -7.1464    1.0000 </r>
       <r>   -6.7841    1.0000 </r>
       <r>   -6.7752    1.0000 </r>
       <r>   -6.6240    1.0000 </r>
       <r>   -6.5752    1.0000 </r>
       <r>   -6.5478    1.0000 </r>
       <r>   -6.5347    1.0000 </r>
       <r>   -6.4858    1.0000 </r>
       <r>   -6.2472    1.0000 </r>
       <r>   -6.1860    1.0000 </r>
       <r>   -6.0800    1.0000 </r>
       <r>   -6.0570    1.0000 </r>
       <r>   -5.9925    1.0000 </r>
       <r>   -5.8435    1.0000 </r>
       <r>   -5.6936    1.0000 </r>
       <r>   -5.5370    1.0000 </r>
       <r>   -5.4415    1.0000 </r>
       <r>   -5.3945    1.0000 </r>
       <r>   -5.3532    1.0000 </r>
       <r>   -5.2934    1.0000 </r>
       <r>   -5.2185    1.0000 </r>
       <r>   -5.0586    1.0000 </r>
       <r>   -5.0361    1.0000 </r>
       <r>   -4.9789    1.0000 </r>
       <r>   -4.7783    1.0000 </r>
       <r>   -4.7428    1.0000 </r>
       <r>   -4.6806    1.0000 </r>
       <r>   -4.6450    1.0000 </r>
       <r>   -4.5089    1.0000 </r>
       <r>   -4.4689    1.0000 </r>
       <r>   -4.4132    1.0000 </r>
       <r>   -4.3585    1.0000 </r>
       <r>   -4.2330    1.0000 </r>
       <r>   -4.1399    1.0000 </r>
       <r>   -4.0930    1.0000 </r>
       <r>   -3.9822    1.0000 </r>
       <r>   -3.9015    1.0000 </r>
       <r>   -3.8206    1.0000 </r>
       <r>   -3.7535    1.0000 </r>
       <r>   -3.7179    1.0000 </r>
       <r>   -3.6731    1.0000 </r>
       <r>   -3.6469    1.0000 </r>
       <r>   -3.6181    1.0000 </r>
       <r>   -3.5537    1.0000 </r>
       <r>   -3.4923    1.0000 </r>
       <r>   -3.3814    1.0000 </r>
       <r>   -3.3433    1.0000 </r>
       <r>   -3.2947    1.0000 </r>
       <r>   -3.2250    1.0000 </r>
       <r>   -3.1947    1.0000 </r>
       <r>   -3.0282    1.0000 </r>
       <r>   -3.0085    1.0000 </r>
       <r>   -2.9213    1.0000 </r>
       <r>   -2.8605    1.0000 </r>
       <r>   -2.7788    1.0000 </r>
       <r>   -2.7519    1.0000 </r>
       <r>   -2.5586    1.0000 </r>
       <r>   -2.4873    1.0000 </r>
       <r>   -2.3965    1.0000 </r>
       <r>   -2.3450    1.0000 </r>
       <r>   -2.2549    1.0000 </r>
       <r>   -2.2162    1.0000 </r>
       <r>   -2.1599    1.0000 </r>
       <r>   -2.0924    1.0000 </r>
       <r>   -2.0095    1.0000 </r>
       <r>   -1.9417    1.0000 </r>
       <r>   -1.8802    1.0000 </r>
       <r>   -1.8489    1.0000 </r>
       <r>   -1.7666    1.0000 </r>
       <r>   -1.6498    1.0000 </r>
       <r>   -1.4489    1.0000 </r>
       <r>   -1.4037    1.0001 </r>
       <r>   -1.3130    1.0012 </r>
       <r>   -1.2174    1.0078 </r>
       <r>   -1.0596    1.0355 </r>
       <r>   -0.9142    0.8661 </r>
       <r>   -0.8836    0.7699 </r>
       <r>   -0.8066    0.4617 </r>
       <r>   -0.7273    0.1637 </r>
       <r>   -0.6768    0.0422 </r>
       <r>   -0.5817   -0.0350 </r>
       <r>   -0.4799   -0.0195 </r>
       <r>   -0.2158   -0.0001 </r>
       <r>    0.6841   -0.0000 </r>
       <r>    1.0154   -0.0000 </r>
       <r>    1.0593   -0.0000 </r>
       <r>    1.7719   -0.0000 </r>
       <r>    1.9632   -0.0000 </r>
       <r>    2.1066   -0.0000 </r>
       <r>    2.4361   -0.0000 </r>
       <r>    3.0259   -0.0000 </r>
       <r>    3.5763   -0.0000 </r>
       <r>    3.9976   -0.0000 </r>
      </set>
      <set comment="kpoint 11">
       <r>   -8.8963    1.0000 </r>
       <r>   -7.9110    1.0000 </r>
       <r>   -7.7223    1.0000 </r>
       <r>   -7.1463    1.0000 </r>
       <r>   -6.7866    1.0000 </r>
       <r>   -6.7724    1.0000 </r>
       <r>   -6.6239    1.0000 </r>
       <r>   -6.5757    1.0000 </r>
       <r>   -6.5456    1.0000 </r>
       <r>   -6.5363    1.0000 </r>
       <r>   -6.4861    1.0000 </r>
       <r>   -6.2475    1.0000 </r>
       <r>   -6.1860    1.0000 </r>
       <r>   -6.0774    1.0000 </r>
       <r>   -6.0589    1.0000 </r>
       <r>   -5.9928    1.0000 </r>
       <r>   -5.8442    1.0000 </r>
       <r>   -5.6935    1.0000 </r>
       <r>   -5.5379    1.0000 </r>
       <r>   -5.4390    1.0000 </r>
       <r>   -5.3962    1.0000 </r>
       <r>   -5.3548    1.0000 </r>
       <r>   -5.2911    1.0000 </r>
       <r>   -5.2170    1.0000 </r>
       <r>   -5.0654    1.0000 </r>
       <r>   -5.0334    1.0000 </r>
       <r>   -4.9797    1.0000 </r>
       <r>   -4.7800    1.0000 </r>
       <r>   -4.7341    1.0000 </r>
       <r>   -4.6843    1.0000 </r>
       <r>   -4.6430    1.0000 </r>
       <r>   -4.5063    1.0000 </r>
       <r>   -4.4655    1.0000 </r>
       <r>   -4.4311    1.0000 </r>
       <r>   -4.3511    1.0000 </r>
       <r>   -4.2301    1.0000 </r>
       <r>   -4.1408    1.0000 </r>
       <r>   -4.0922    1.0000 </r>
       <r>   -3.9824    1.0000 </r>
       <r>   -3.8990    1.0000 </r>
       <r>   -3.7986    1.0000 </r>
       <r>   -3.7800    1.0000 </r>
       <r>   -3.7191    1.0000 </r>
       <r>   -3.6828    1.0000 </r>
       <r>   -3.6496    1.0000 </r>
       <r>   -3.5944    1.0000 </r>
       <r>   -3.5600    1.0000 </r>
       <r>   -3.5010    1.0000 </r>
       <r>   -3.3861    1.0000 </r>
       <r>   -3.3266    1.0000 </r>
       <r>   -3.2866    1.0000 </r>
       <r>   -3.2384    1.0000 </r>
       <r>   -3.1953    1.0000 </r>
       <r>   -3.0375    1.0000 </r>
       <r>   -2.9987    1.0000 </r>
       <r>   -2.9206    1.0000 </r>
       <r>   -2.8490    1.0000 </r>
       <r>   -2.7932    1.0000 </r>
       <r>   -2.7482    1.0000 </r>
       <r>   -2.5508    1.0000 </r>
       <r>   -2.4931    1.0000 </r>
       <r>   -2.3945    1.0000 </r>
       <r>   -2.3514    1.0000 </r>
       <r>   -2.2834    1.0000 </r>
       <r>   -2.1882    1.0000 </r>
       <r>   -2.1579    1.0000 </r>
       <r>   -2.1103    1.0000 </r>
       <r>   -1.9723    1.0000 </r>
       <r>   -1.9368    1.0000 </r>
       <r>   -1.8840    1.0000 </r>
       <r>   -1.8682    1.0000 </r>
       <r>   -1.7803    1.0000 </r>
       <r>   -1.6446    1.0000 </r>
       <r>   -1.4407    1.0000 </r>
       <r>   -1.4015    1.0001 </r>
       <r>   -1.3158    1.0012 </r>
       <r>   -1.2159    1.0080 </r>
       <r>   -1.0582    1.0354 </r>
       <r>   -0.9386    0.9265 </r>
       <r>   -0.8503    0.6443 </r>
       <r>   -0.8057    0.4580 </r>
       <r>   -0.7216    0.1466 </r>
       <r>   -0.7087    0.1116 </r>
       <r>   -0.5701   -0.0355 </r>
       <r>   -0.4790   -0.0193 </r>
       <r>   -0.2158   -0.0001 </r>
       <r>    0.6840   -0.0000 </r>
       <r>    1.0091   -0.0000 </r>
       <r>    1.0675   -0.0000 </r>
       <r>    1.7714   -0.0000 </r>
       <r>    1.9589   -0.0000 </r>
       <r>    2.1095   -0.0000 </r>
       <r>    2.4363   -0.0000 </r>
       <r>    3.0266   -0.0000 </r>
       <r>    3.5756   -0.0000 </r>
       <r>    3.9972   -0.0000 </r>
      </set>
      <set comment="kpoint 12">
       <r>   -8.5453    1.0000 </r>
       <r>   -8.2054    1.0000 </r>
       <r>   -7.4670    1.0000 </r>
       <r>   -7.2609    1.0000 </r>
       <r>   -6.6799    1.0000 </r>
       <r>   -6.6675    1.0000 </r>
       <r>   -6.5433    1.0000 </r>
       <r>   -6.4754    1.0000 </r>
       <r>   -6.4582    1.0000 </r>
       <r>   -6.3707    1.0000 </r>
       <r>   -6.3481    1.0000 </r>
       <r>   -6.2079    1.0000 </r>
       <r>   -6.1480    1.0000 </r>
       <r>   -6.0384    1.0000 </r>
       <r>   -5.8837    1.0000 </r>
       <r>   -5.7788    1.0000 </r>
       <r>   -5.6882    1.0000 </r>
       <r>   -5.6546    1.0000 </r>
       <r>   -5.5804    1.0000 </r>
       <r>   -5.5017    1.0000 </r>
       <r>   -5.3457    1.0000 </r>
       <r>   -5.2782    1.0000 </r>
       <r>   -5.2378    1.0000 </r>
       <r>   -5.2084    1.0000 </r>
       <r>   -5.1187    1.0000 </r>
       <r>   -5.0655    1.0000 </r>
       <r>   -5.0359    1.0000 </r>
       <r>   -4.9260    1.0000 </r>
       <r>   -4.8032    1.0000 </r>
       <r>   -4.7172    1.0000 </r>
       <r>   -4.6562    1.0000 </r>
       <r>   -4.5726    1.0000 </r>
       <r>   -4.5528    1.0000 </r>
       <r>   -4.4780    1.0000 </r>
       <r>   -4.4106    1.0000 </r>
       <r>   -4.2723    1.0000 </r>
       <r>   -4.1419    1.0000 </r>
       <r>   -4.0685    1.0000 </r>
       <r>   -4.0450    1.0000 </r>
       <r>   -3.9777    1.0000 </r>
       <r>   -3.8835    1.0000 </r>
       <r>   -3.8386    1.0000 </r>
       <r>   -3.7912    1.0000 </r>
       <r>   -3.7021    1.0000 </r>
       <r>   -3.6784    1.0000 </r>
       <r>   -3.6591    1.0000 </r>
       <r>   -3.6149    1.0000 </r>
       <r>   -3.5814    1.0000 </r>
       <r>   -3.5269    1.0000 </r>
       <r>   -3.5148    1.0000 </r>
       <r>   -3.3887    1.0000 </r>
       <r>   -3.3304    1.0000 </r>
       <r>   -3.1070    1.0000 </r>
       <r>   -3.0523    1.0000 </r>
       <r>   -2.9997    1.0000 </r>
       <r>   -2.9313    1.0000 </r>
       <r>   -2.8462    1.0000 </r>
       <r>   -2.8052    1.0000 </r>
       <r>   -2.7522    1.0000 </r>
       <r>   -2.6526    1.0000 </r>
       <r>   -2.5848    1.0000 </r>
       <r>   -2.4786    1.0000 </r>
       <r>   -2.3755    1.0000 </r>
       <r>   -2.3137    1.0000 </r>
       <r>   -2.2756    1.0000 </r>
       <r>   -2.2372    1.0000 </r>
       <r>   -2.1727    1.0000 </r>
       <r>   -2.0923    1.0000 </r>
       <r>   -2.0215    1.0000 </r>
       <r>   -1.9846    1.0000 </r>
       <r>   -1.9254    1.0000 </r>
       <r>   -1.8809    1.0000 </r>
       <r>   -1.8226    1.0000 </r>
       <r>   -1.6415    1.0000 </r>
       <r>   -1.4305    1.0001 </r>
       <r>   -1.2578    1.0038 </r>
       <r>   -1.2291    1.0064 </r>
       <r>   -1.1508    1.0196 </r>
       <r>   -0.8999    0.8239 </r>
       <r>   -0.8346    0.5797 </r>
       <r>   -0.7854    0.3735 </r>
       <r>   -0.7181    0.1367 </r>
       <r>   -0.6148   -0.0255 </r>
       <r>   -0.5307   -0.0308 </r>
       <r>   -0.5057   -0.0254 </r>
       <r>   -0.4035   -0.0065 </r>
       <r>    0.7118   -0.0000 </r>
       <r>    1.0815   -0.0000 </r>
       <r>    1.3346   -0.0000 </r>
       <r>    1.6465   -0.0000 </r>
       <r>    1.8163   -0.0000 </r>
       <r>    2.0808   -0.0000 </r>
       <r>    2.5025   -0.0000 </r>
       <r>    3.5817   -0.0000 </r>
       <r>    3.6149   -0.0000 </r>
       <r>    4.0118   -0.0000 </r>
      </set>
      <set comment="kpoint 13">
       <r>   -8.5457    1.0000 </r>
       <r>   -8.2054    1.0000 </r>
       <r>   -7.4676    1.0000 </r>
       <r>   -7.2593    1.0000 </r>
       <r>   -6.6833    1.0000 </r>
       <r>   -6.6678    1.0000 </r>
       <r>   -6.5484    1.0000 </r>
       <r>   -6.4892    1.0000 </r>
       <r>   -6.4442    1.0000 </r>
       <r>   -6.3676    1.0000 </r>
       <r>   -6.3388    1.0000 </r>
       <r>   -6.2120    1.0000 </r>
       <r>   -6.1491    1.0000 </r>
       <r>   -6.0355    1.0000 </r>
       <r>   -5.8848    1.0000 </r>
       <r>   -5.7811    1.0000 </r>
       <r>   -5.6925    1.0000 </r>
       <r>   -5.6510    1.0000 </r>
       <r>   -5.5801    1.0000 </r>
       <r>   -5.4887    1.0000 </r>
       <r>   -5.3543    1.0000 </r>
       <r>   -5.2716    1.0000 </r>
       <r>   -5.2419    1.0000 </r>
       <r>   -5.2165    1.0000 </r>
       <r>   -5.1271    1.0000 </r>
       <r>   -5.0574    1.0000 </r>
       <r>   -5.0307    1.0000 </r>
       <r>   -4.9311    1.0000 </r>
       <r>   -4.8022    1.0000 </r>
       <r>   -4.7058    1.0000 </r>
       <r>   -4.6426    1.0000 </r>
       <r>   -4.5773    1.0000 </r>
       <r>   -4.5581    1.0000 </r>
       <r>   -4.4933    1.0000 </r>
       <r>   -4.4127    1.0000 </r>
       <r>   -4.2737    1.0000 </r>
       <r>   -4.1313    1.0000 </r>
       <r>   -4.0792    1.0000 </r>
       <r>   -4.0528    1.0000 </r>
       <r>   -3.9689    1.0000 </r>
       <r>   -3.8852    1.0000 </r>
       <r>   -3.8430    1.0000 </r>
       <r>   -3.7749    1.0000 </r>
       <r>   -3.7025    1.0000 </r>
       <r>   -3.6670    1.0000 </r>
       <r>   -3.6528    1.0000 </r>
       <r>   -3.6308    1.0000 </r>
       <r>   -3.5836    1.0000 </r>
       <r>   -3.5600    1.0000 </r>
[...]
       <r>   -4.4665    1.0000 </r>
       <r>   -4.4332    1.0000 </r>
       <r>   -4.3182    1.0000 </r>
       <r>   -4.2460    1.0000 </r>
       <r>   -4.1538    1.0000 </r>
       <r>   -4.1140    1.0000 </r>
       <r>   -4.0983    1.0000 </r>
       <r>   -4.0347    1.0000 </r>
       <r>   -3.9367    1.0000 </r>
       <r>   -3.8364    1.0000 </r>
       <r>   -3.7511    1.0000 </r>
       <r>   -3.7069    1.0000 </r>
       <r>   -3.6751    1.0000 </r>
       <r>   -3.6414    1.0000 </r>
       <r>   -3.6056    1.0000 </r>
       <r>   -3.5816    1.0000 </r>
       <r>   -3.4934    1.0000 </r>
       <r>   -3.3709    1.0000 </r>
       <r>   -3.2893    1.0000 </r>
       <r>   -3.1440    1.0000 </r>
       <r>   -2.9944    1.0000 </r>
       <r>   -2.9506    1.0000 </r>
       <r>   -2.9035    1.0000 </r>
       <r>   -2.8877    1.0000 </r>
       <r>   -2.8256    1.0000 </r>
       <r>   -2.7009    1.0000 </r>
       <r>   -2.5966    1.0000 </r>
       <r>   -2.5324    1.0000 </r>
       <r>   -2.4849    1.0000 </r>
       <r>   -2.4110    1.0000 </r>
       <r>   -2.3287    1.0000 </r>
       <r>   -2.2210    1.0000 </r>
       <r>   -2.1763    1.0000 </r>
       <r>   -2.1171    1.0000 </r>
       <r>   -2.0590    1.0000 </r>
       <r>   -1.9918    1.0000 </r>
       <r>   -1.9248    1.0000 </r>
       <r>   -1.8732    1.0000 </r>
       <r>   -1.8037    1.0000 </r>
       <r>   -1.7117    1.0000 </r>
       <r>   -1.6064    1.0000 </r>
       <r>   -1.4449    1.0000 </r>
       <r>   -1.2803    1.0025 </r>
       <r>   -1.2619    1.0035 </r>
       <r>   -1.1635    1.0169 </r>
       <r>   -0.9931    1.0091 </r>
       <r>   -0.8994    0.8224 </r>
       <r>   -0.8573    0.6721 </r>
       <r>   -0.7890    0.3884 </r>
       <r>   -0.6457   -0.0017 </r>
       <r>   -0.6143   -0.0258 </r>
       <r>   -0.4501   -0.0134 </r>
       <r>   -0.3871   -0.0049 </r>
       <r>    0.2036   -0.0000 </r>
       <r>    0.4915   -0.0000 </r>
       <r>    1.4375   -0.0000 </r>
       <r>    1.5468   -0.0000 </r>
       <r>    1.5780   -0.0000 </r>
       <r>    2.3465   -0.0000 </r>
       <r>    3.1588   -0.0000 </r>
       <r>    3.4185   -0.0000 </r>
       <r>    3.9385   -0.0000 </r>
       <r>    3.9842   -0.0000 </r>
      </set>
     </set>
    </set>
   </array>
  </eigenvalues>
  <separator name="orbital magnetization" >
   <v name="MAGDIPOLOUT">      0.00000000      0.00000000      0.00000000</v>
  </separator>
  <dos>
   <i name="efermi">     -0.81563333 </i>
   <total>
    <array>
     <dimension dim="1">gridpoints</dimension>
     <dimension dim="2">spin</dimension>
     <field>energy</field>
     <field>total</field>
     <field>integrated</field>
     <set>
      <set comment="spin 1">
       <r>   -12.1933     0.0000     0.0000 </r>
       <r>   -12.1310     0.0000     0.0000 </r>
       <r>   -12.0687     0.0000     0.0000 </r>
       <r>   -12.0064     0.0000     0.0000 </r>
       <r>   -11.9441     0.0000     0.0000 </r>
       <r>   -11.8818     0.0000     0.0000 </r>
       <r>   -11.8195    -0.0000    -0.0000 </r>
       <r>   -11.7571    -0.0000    -0.0000 </r>
       <r>   -11.6948    -0.0000    -0.0000 </r>
       <r>   -11.6325    -0.0000    -0.0000 </r>
       <r>   -11.5702    -0.0000    -0.0000 </r>
       <r>   -11.5079    -0.0000    -0.0000 </r>
       <r>   -11.4456    -0.0000    -0.0000 </r>
       <r>   -11.3833    -0.0000    -0.0000 </r>
       <r>   -11.3210    -0.0000    -0.0000 </r>
       <r>   -11.2587    -0.0000    -0.0000 </r>
       <r>   -11.1964    -0.0000    -0.0000 </r>
       <r>   -11.1341    -0.0000    -0.0000 </r>
       <r>   -11.0718    -0.0000    -0.0000 </r>
       <r>   -11.0094    -0.0000    -0.0000 </r>
       <r>   -10.9471    -0.0000    -0.0000 </r>
       <r>   -10.8848    -0.0000    -0.0000 </r>
       <r>   -10.8225    -0.0000    -0.0000 </r>
       <r>   -10.7602    -0.0002    -0.0000 </r>
       <r>   -10.6979    -0.0010    -0.0001 </r>
       <r>   -10.6356    -0.0035    -0.0003 </r>
       <r>   -10.5733    -0.0099    -0.0009 </r>
       <r>   -10.5110    -0.0205    -0.0022 </r>
       <r>   -10.4487    -0.0284    -0.0040 </r>
       <r>   -10.3864    -0.0118    -0.0047 </r>
       <r>   -10.3241     0.0595    -0.0010 </r>
       <r>   -10.2617     0.2009     0.0115 </r>
       <r>   -10.1994     0.3920     0.0360 </r>
       <r>   -10.1371     0.5894     0.0727 </r>
       <r>   -10.0748     0.7581     0.1199 </r>
       <r>   -10.0125     0.8791     0.1747 </r>
       <r>    -9.9502     0.9345     0.2329 </r>
       <r>    -9.8879     0.9123     0.2898 </r>
       <r>    -9.8256     0.8323     0.3416 </r>
       <r>    -9.7633     0.7565     0.3888 </r>
       <r>    -9.7010     0.7606     0.4362 </r>
       <r>    -9.6387     0.8717     0.4905 </r>
       <r>    -9.5764     1.0220     0.5542 </r>
       <r>    -9.5140     1.0950     0.6224 </r>
       <r>    -9.4517     1.0405     0.6872 </r>
       <r>    -9.3894     0.9160     0.7443 </r>
       <r>    -9.3271     0.8054     0.7945 </r>
       <r>    -9.2648     0.7426     0.8407 </r>
       <r>    -9.2025     0.7370     0.8867 </r>
       <r>    -9.1402     0.8265     0.9382 </r>
       <r>    -9.0779     1.0454     1.0033 </r>
       <r>    -9.0156     1.3444     1.0871 </r>
       <r>    -8.9533     1.6033     1.1870 </r>
       <r>    -8.8910     1.7462     1.2958 </r>
       <r>    -8.8287     1.8057     1.4083 </r>
       <r>    -8.7663     1.8437     1.5232 </r>
       <r>    -8.7040     1.8543     1.6387 </r>
       <r>    -8.6417     1.7992     1.7508 </r>
       <r>    -8.5794     1.7185     1.8579 </r>
       <r>    -8.5171     1.7437     1.9665 </r>
       <r>    -8.4548     1.9780     2.0898 </r>
       <r>    -8.3925     2.3643     2.2371 </r>
       <r>    -8.3302     2.6853     2.4044 </r>
       <r>    -8.2679     2.7392     2.5751 </r>
       <r>    -8.2056     2.5340     2.7330 </r>
       <r>    -8.1433     2.2640     2.8740 </r>
       <r>    -8.0810     2.0945     3.0045 </r>
       <r>    -8.0186     2.0521     3.1324 </r>
       <r>    -7.9563     2.1593     3.2669 </r>
       <r>    -7.8940     2.5609     3.4265 </r>
       <r>    -7.8317     3.3774     3.6369 </r>
       <r>    -7.7694     4.4473     3.9140 </r>
       <r>    -7.7071     5.3766     4.2491 </r>
       <r>    -7.6448     5.9466     4.6196 </r>
       <r>    -7.5825     6.3758     5.0168 </r>
       <r>    -7.5202     7.0613     5.4568 </r>
       <r>    -7.4579     8.1679     5.9657 </r>
       <r>    -7.3956     9.5976     6.5638 </r>
       <r>    -7.3333    11.1921     7.2611 </r>
       <r>    -7.2709    12.7269     8.0541 </r>
       <r>    -7.2086    13.8154     8.9149 </r>
       <r>    -7.1463    14.0846     9.7925 </r>
       <r>    -7.0840    13.5142    10.6346 </r>
       <r>    -7.0217    12.5688    11.4177 </r>
       <r>    -6.9594    12.0147    12.1663 </r>
       <r>    -6.8971    12.5439    12.9479 </r>
       <r>    -6.8348    14.3913    13.8446 </r>
       <r>    -6.7725    17.1749    14.9147 </r>
       <r>    -6.7102    20.1308    16.1691 </r>
       <r>    -6.6479    22.5878    17.5765 </r>
       <r>    -6.5856    24.2179    19.0854 </r>
       <r>    -6.5232    24.8920    20.6364 </r>
       <r>    -6.4609    24.5864    22.1684 </r>
       <r>    -6.3986    23.6042    23.6391 </r>
       <r>    -6.3363    22.6083    25.0478 </r>
       <r>    -6.2740    22.0888    26.4241 </r>
       <r>    -6.2117    21.8439    27.7852 </r>
       <r>    -6.1494    21.1837    29.1051 </r>
       <r>    -6.0871    19.6482    30.3293 </r>
       <r>    -6.0248    17.4667    31.4176 </r>
       <r>    -5.9625    15.3832    32.3761 </r>
       <r>    -5.9002    14.1364    33.2570 </r>
       <r>    -5.8379    14.0952    34.1352 </r>
       <r>    -5.7755    15.2194    35.0835 </r>
       <r>    -5.7132    17.1327    36.1510 </r>
       <r>    -5.6509    19.1793    37.3461 </r>
       <r>    -5.5886    20.6158    38.6306 </r>
       <r>    -5.5263    20.9869    39.9382 </r>
       <r>    -5.4640    20.4151    41.2103 </r>
       <r>    -5.4017    19.5242    42.4268 </r>
       <r>    -5.3394    19.0081    43.6112 </r>
       <r>    -5.2771    19.1518    44.8045 </r>
       <r>    -5.2148    19.7152    46.0329 </r>
       <r>    -5.1525    20.2669    47.2957 </r>
       <r>    -5.0902    20.5743    48.5776 </r>
       <r>    -5.0278    20.6769    49.8660 </r>
       <r>    -4.9655    20.7369    51.1581 </r>
       <r>    -4.9032    20.9237    52.4618 </r>
       <r>    -4.8409    21.3774    53.7938 </r>
       <r>    -4.7786    22.2153    55.1780 </r>
       <r>    -4.7163    23.5414    56.6448 </r>
       <r>    -4.6540    25.3333    58.2233 </r>
       <r>    -4.5917    27.2014    59.9182 </r>
       <r>    -4.5294    28.3818    61.6866 </r>
       <r>    -4.4671    28.2845    63.4489 </r>
       <r>    -4.4048    27.2073    65.1442 </r>
       <r>    -4.3425    26.3270    66.7846 </r>
       <r>    -4.2801    26.7341    68.4503 </r>
       <r>    -4.2178    28.4635    70.2238 </r>
       <r>    -4.1555    30.5699    72.1286 </r>
       <r>    -4.0932    32.0783    74.1273 </r>
       <r>    -4.0309    32.7411    76.1674 </r>
       <r>    -3.9686    32.9726    78.2219 </r>
       <r>    -3.9063    33.2765    80.2953 </r>
       <r>    -3.8440    33.8094    82.4019 </r>
       <r>    -3.7817    34.3619    84.5429 </r>
       <r>    -3.7194    34.5582    86.6962 </r>
       <r>    -3.6571    33.9912    88.8141 </r>
       <r>    -3.5948    32.3341    90.8288 </r>
       <r>    -3.5324    29.5738    92.6715 </r>
       <r>    -3.4701    26.1651    94.3018 </r>
       <r>    -3.4078    22.8160    95.7234 </r>
       <r>    -3.3455    20.0730    96.9741 </r>
       <r>    -3.2832    18.1584    98.1056 </r>
       <r>    -3.2209    17.1637    99.1750 </r>
       <r>    -3.1586    17.2822   100.2518 </r>
       <r>    -3.0963    18.7461   101.4199 </r>
       <r>    -3.0340    21.4631   102.7572 </r>
       <r>    -2.9717    24.7222   104.2976 </r>
       <r>    -2.9094    27.3819   106.0037 </r>
       <r>    -2.8471    28.4899   107.7789 </r>
       <r>    -2.7847    27.8192   109.5122 </r>
       <r>    -2.7224    25.9315   111.1280 </r>
       <r>    -2.6601    23.8086   112.6115 </r>
       <r>    -2.5978    22.3041   114.0012 </r>
       <r>    -2.5355    21.7486   115.3563 </r>
       <r>    -2.4732    21.9697   116.7252 </r>
       <r>    -2.4109    22.5758   118.1319 </r>
       <r>    -2.3486    23.1686   119.5755 </r>
       <r>    -2.2863    23.4930   121.0393 </r>
       <r>    -2.2240    23.6052   122.5101 </r>
       <r>    -2.1617    23.8354   123.9952 </r>
       <r>    -2.0994    24.4894   125.5211 </r>
       <r>    -2.0370    25.6159   127.1172 </r>
       <r>    -1.9747    26.9559   128.7968 </r>
       <r>    -1.9124    27.9603   130.5389 </r>
       <r>    -1.8501    28.0300   132.2854 </r>
       <r>    -1.7878    27.0366   133.9701 </r>
       <r>    -1.7255    25.5406   135.5614 </r>
       <r>    -1.6632    24.2616   137.0731 </r>
       <r>    -1.6009    23.4069   138.5316 </r>
       <r>    -1.5386    22.7300   139.9479 </r>
       <r>    -1.4763    22.1537   141.3282 </r>
       <r>    -1.4140    22.0360   142.7013 </r>
       <r>    -1.3517    22.7369   144.1179 </r>
       <r>    -1.2893    24.1332   145.6216 </r>
       <r>    -1.2270    25.7779   147.2278 </r>
       <r>    -1.1647    27.4344   148.9372 </r>
       <r>    -1.1024    29.1602   150.7541 </r>
       <r>    -1.0401    30.8879   152.6787 </r>
       <r>    -0.9778    32.2686   154.6893 </r>
       <r>    -0.9155    32.9857   156.7446 </r>
       <r>    -0.8532    32.8886   158.7938 </r>
       <r>    -0.7909    31.7715   160.7735 </r>
       <r>    -0.7286    29.4339   162.6074 </r>
       <r>    -0.6663    26.1362   164.2360 </r>
       <r>    -0.6040    22.6380   165.6465 </r>
       <r>    -0.5416    19.5460   166.8644 </r>
       <r>    -0.4793    16.8435   167.9139 </r>
       <r>    -0.4170    14.2220   168.8000 </r>
       <r>    -0.3547    11.6425   169.5254 </r>
       <r>    -0.2924     9.3775   170.1097 </r>
       <r>    -0.2301     7.6805   170.5883 </r>
       <r>    -0.1678     6.6335   171.0016 </r>
       <r>    -0.1055     6.2118   171.3887 </r>
       <r>    -0.0432     6.2416   171.7776 </r>
       <r>     0.0191     6.3095   172.1707 </r>
       <r>     0.0814     6.0002   172.5446 </r>
       <r>     0.1437     5.3323   172.8768 </r>
       <r>     0.2061     4.7708   173.1741 </r>
       <r>     0.2684     4.6801   173.4657 </r>
       <r>     0.3307     4.8829   173.7699 </r>
       <r>     0.3930     4.8720   174.0735 </r>
       <r>     0.4553     4.4012   174.3477 </r>
       <r>     0.5176     3.7715   174.5827 </r>
       <r>     0.5799     3.5425   174.8034 </r>
       <r>     0.6422     4.0270   175.0543 </r>
       <r>     0.7045     5.0638   175.3699 </r>
       <r>     0.7668     6.1867   175.7554 </r>
       <r>     0.8291     6.9282   176.1870 </r>
       <r>     0.8914     7.0344   176.6253 </r>
       <r>     0.9538     6.5508   177.0335 </r>
       <r>     1.0161     5.7587   177.3923 </r>
       <r>     1.0784     4.9688   177.7019 </r>
       <r>     1.1407     4.3482   177.9728 </r>
       <r>     1.2030     3.9308   178.2178 </r>
       <r>     1.2653     3.7259   178.4499 </r>
       <r>     1.3276     3.7604   178.6842 </r>
       <r>     1.3899     4.0283   178.9352 </r>
       <r>     1.4522     4.4342   179.2115 </r>
       <r>     1.5145     4.8344   179.5127 </r>
       <r>     1.5768     5.1699   179.8349 </r>
       <r>     1.6391     5.5143   180.1784 </r>
       <r>     1.7015     5.9007   180.5461 </r>
       <r>     1.7638     6.1221   180.9276 </r>
       <r>     1.8261     5.8643   181.2930 </r>
       <r>     1.8884     5.1174   181.6118 </r>
       <r>     1.9507     4.3450   181.8825 </r>
       <r>     2.0130     4.1259   182.1396 </r>
       <r>     2.0753     4.6219   182.4276 </r>
       <r>     2.1376     5.4242   182.7656 </r>
       <r>     2.1999     5.9285   183.1350 </r>
       <r>     2.2622     5.8717   183.5008 </r>
       <r>     2.3245     5.4989   183.8435 </r>
       <r>     2.3869     5.2009   184.1675 </r>
       <r>     2.4492     5.0378   184.4814 </r>
       <r>     2.5115     4.7033   184.7745 </r>
       <r>     2.5738     3.9744   185.0221 </r>
       <r>     2.6361     3.1154   185.2162 </r>
       <r>     2.6984     2.7541   185.3878 </r>
       <r>     2.7607     3.3503   185.5966 </r>
       <r>     2.8230     4.7528   185.8927 </r>
       <r>     2.8853     6.2129   186.2798 </r>
       <r>     2.9476     6.8727   186.7081 </r>
       <r>     3.0099     6.3797   187.1056 </r>
       <r>     3.0722     5.1119   187.4241 </r>
       <r>     3.1346     3.8246   187.6624 </r>
       <r>     3.1969     3.0951   187.8552 </r>
       <r>     3.2592     3.0439   188.0449 </r>
       <r>     3.3215     3.4211   188.2581 </r>
       <r>     3.3838     3.8601   188.4986 </r>
       <r>     3.4461     4.1109   188.7547 </r>
       <r>     3.5084     4.1134   189.0110 </r>
       <r>     3.5707     3.8902   189.2534 </r>
       <r>     3.6330     3.4847   189.4705 </r>
       <r>     3.6953     3.0842   189.6627 </r>
       <r>     3.7576     3.0409   189.8522 </r>
       <r>     3.8199     3.5441   190.0730 </r>
       <r>     3.8823     4.3032   190.3411 </r>
       <r>     3.9446     4.7163   190.6350 </r>
       <r>     4.0069     4.3842   190.9082 </r>
       <r>     4.0692     3.4352   191.1222 </r>
       <r>     4.1315     2.3853   191.2708 </r>
       <r>     4.1938     1.7171   191.3778 </r>
       <r>     4.2561     1.5701   191.4757 </r>
       <r>     4.3184     1.7550   191.5850 </r>
       <r>     4.3807     1.9571   191.7069 </r>
       <r>     4.4430     1.9178   191.8264 </r>
       <r>     4.5053     1.5485   191.9229 </r>
       <r>     4.5676     0.9701   191.9834 </r>
       <r>     4.6300     0.4184   192.0094 </r>
       <r>     4.6923     0.0663   192.0136 </r>
       <r>     4.7546    -0.0695   192.0092 </r>
       <r>     4.8169    -0.0766   192.0045 </r>
       <r>     4.8792    -0.0449   192.0017 </r>
       <r>     4.9415    -0.0188   192.0005 </r>
       <r>     5.0038    -0.0061   192.0001 </r>
       <r>     5.0661    -0.0016   192.0000 </r>
       <r>     5.1284    -0.0003   192.0000 </r>
       <r>     5.1907    -0.0001   192.0000 </r>
       <r>     5.2530    -0.0000   192.0000 </r>
       <r>     5.3153    -0.0000   192.0000 </r>
       <r>     5.3777    -0.0000   192.0000 </r>
       <r>     5.4400    -0.0000   192.0000 </r>
       <r>     5.5023    -0.0000   192.0000 </r>
       <r>     5.5646    -0.0000   192.0000 </r>
       <r>     5.6269    -0.0000   192.0000 </r>
       <r>     5.6892    -0.0000   192.0000 </r>
       <r>     5.7515    -0.0000   192.0000 </r>
       <r>     5.8138     0.0000   192.0000 </r>
       <r>     5.8761     0.0000   192.0000 </r>
       <r>     5.9384     0.0000   192.0000 </r>
       <r>     6.0007     0.0000   192.0000 </r>
       <r>     6.0630     0.0000   192.0000 </r>
       <r>     6.1254     0.0000   192.0000 </r>
       <r>     6.1877     0.0000   192.0000 </r>
       <r>     6.2500     0.0000   192.0000 </r>
       <r>     6.3123     0.0000   192.0000 </r>
       <r>     6.3746     0.0000   192.0000 </r>
       <r>     6.4369     0.0000   192.0000 </r>
       <r>     6.4992     0.0000   192.0000 </r>
      </set>
     </set>
    </array>
   </total>
  </dos>
 </calculation>
 <structure name="finalpos" >
  <crystal>
   <varray name="basis" >
    <v>       5.55785930       0.00000000       0.00000000 </v>
    <v>       2.77892965       4.81324734       0.00000000 </v>
    <v>       0.00000000       0.00000000      30.80695967 </v>
   </varray>
   <i name="volume">    824.12780743 </i>
   <varray name="rec_basis" >
    <v>       0.17992539      -0.10387997       0.00000000 </v>
    <v>       0.00000000       0.20775994       0.00000000 </v>
    <v>       0.00000000       0.00000000       0.03246020 </v>
   </varray>
  </crystal>
  <varray name="positions" >
   <v>       0.00000000       0.00000000       0.38952237 </v>
   <v>       0.50000000       0.00000000       0.38952237 </v>
   <v>       0.00000000       0.50000000       0.38952237 </v>
   <v>       0.50000000       0.50000000       0.38952237 </v>
   <v>       0.16666667       0.16666667       0.46468540 </v>
   <v>       0.66666667       0.16666667       0.46468540 </v>
   <v>       0.16666667       0.66666667       0.46468540 </v>
   <v>       0.66666667       0.66666667       0.46468540 </v>
   <v>       0.83333333       0.33333333       0.53920296 </v>
   <v>       0.33333333       0.33333333       0.53920296 </v>
   <v>       0.83333333       0.83333333       0.53920296 </v>
   <v>       0.33333333       0.83333333       0.53920296 </v>
   <v>       0.00000000       0.00000000       0.61486043 </v>
   <v>       0.50000000       0.00000000       0.61486043 </v>
   <v>       0.50000000       0.50000000       0.61486043 </v>
   <v>       0.00000000       0.50000000       0.61486043 </v>
  </varray>
  <varray name="selective"  type="logical" >
   <v type="logical" >  F  F  F </v>
   <v type="logical" >  F  F  F </v>
   <v type="logical" >  F  F  F </v>
   <v type="logical" >  F  F  F </v>
   <v type="logical" >  T  T  T </v>
   <v type="logical" >  T  T  T </v>
   <v type="logical" >  T  T  T </v>
   <v type="logical" >  T  T  T </v>
   <v type="logical" >  T  T  T </v>
   <v type="logical" >  T  T  T </v>
   <v type="logical" >  T  T  T </v>
   <v type="logical" >  T  T  T </v>
   <v type="logical" >  T  T  T </v>
   <v type="logical" >  T  T  T </v>
   <v type="logical" >  T  T  T </v>
   <v type="logical" >  T  T  T </v>
  </varray>
  <nose>
   <v>      -3.00000000       0.00000000       0.00010000       0.00010000 </v>
  </nose>
 </structure>
</modeling>
