   16   16    1    1
  0.5150799E+02  0.5557859E-09  0.5557859E-09  0.3080696E-08  0.5000000E-15
  1.000000000000000E-004
  CAR 
 unknown system                          
    160     52     96
 
  0.6250000E-01  0.6250000E-01  0.0000000E+00  0.1041667E-01
    1      -10.193130   1.000000
    2       -8.921795   1.000000
    3       -7.857680   1.000000
    4       -7.739780   1.000000
    5       -7.465352   1.000000
    6       -7.439171   1.000000
    7       -7.436164   1.000000
    8       -7.310828   1.000000
    9       -7.299074   1.000000
   10       -7.285652   1.000000
   11       -6.841470   1.000000
   12       -6.834755   1.000000
   13       -6.826151   1.000000
   14       -6.797781   1.000000
   15       -6.784073   1.000000
   16       -6.598642   1.000000
   17       -6.564264   1.000000
   18       -6.532391   1.000000
   19       -6.485427   1.000000
   20       -5.802060   1.000000
   21       -5.794291   1.000000
   22       -5.687051   1.000000
   23       -4.928334   1.000000
   24       -4.922953   1.000000
   25       -4.810454   1.000000
   26       -4.690263   1.000000
   27       -4.661280   1.000000
   28       -4.652505   1.000000
   29       -4.611981   1.000000
   30       -4.528926   1.000000
   31       -4.374904   1.000000
   32       -4.330221   1.000000
   33       -4.213092   1.000000
   34       -4.198864   1.000000
   35       -4.055831   1.000000
   36       -4.033229   1.000000
   37       -3.990850   1.000000
   38       -3.985636   1.000000
   39       -3.960004   1.000000
   40       -3.847673   1.000000
   41       -3.717567   1.000000
   42       -3.687459   1.000000
   43       -3.508220   1.000000
   44       -3.473590   1.000000
   45       -3.393283   1.000000
   46       -3.170490   1.000000
   47       -3.150238   1.000000
   48       -2.941526   1.000000
   49       -2.922204   1.000000
   50       -2.781948   1.000000
   51       -2.740369   1.000000
   52       -2.354083   1.000000
   53       -2.352034   1.000000
   54       -2.130236   1.000000
   55       -2.121985   1.000000
   56       -1.850339   1.000000
   57       -1.848438   1.000000
   58       -1.692640   1.000000
   59       -1.661702   1.000000
   60       -1.586798   1.000000
   61       -1.567420   1.000001
   62       -1.510435   1.000005
   63       -1.284369   1.002255
   64       -1.155016   1.018650
   65       -1.119092   1.026841
   66       -1.109605   1.028941
   67       -1.037750   1.033157
   68       -1.024053   1.029020
   69       -1.001958   1.016609
   70       -0.910099   0.854949
   71       -0.809044   0.472759
   72       -0.796649   0.420683
   73       -0.752492   0.247544
   74       -0.743300   0.215493
   75       -0.705540   0.103822
   76       -0.699614   0.089463
   77       -0.679334   0.047024
   78       -0.533137  -0.031335
   79       -0.519130  -0.028456
   80       -0.494378  -0.022810
   81       -0.353447  -0.002592
   82       -0.197370  -0.000056
   83       -0.110799  -0.000004
   84       -0.027227  -0.000000
   85        0.029216  -0.000000
   86        0.073364  -0.000000
   87        0.369563  -0.000000
   88        0.408822  -0.000000
   89        1.193822  -0.000000
   90        1.486465  -0.000000
   91        1.612016  -0.000000
   92        1.635681  -0.000000
   93        1.764350  -0.000000
   94        1.770167  -0.000000
   95        2.580525  -0.000000
   96        2.583250  -0.000000
 
  0.0000000E+00  0.6250000E-01  0.0000000E+00  0.2083333E-01
    1      -10.193133   1.000000
    2       -8.921795   1.000000
    3       -7.857678   1.000000
    4       -7.739789   1.000000
    5       -7.464742   1.000000
    6       -7.442607   1.000000
    7       -7.433382   1.000000
    8       -7.311278   1.000000
    9       -7.298770   1.000000
   10       -7.285489   1.000000
   11       -6.841574   1.000000
   12       -6.832886   1.000000
   13       -6.828053   1.000000
   14       -6.796582   1.000000
   15       -6.785441   1.000000
   16       -6.596297   1.000000
   17       -6.561646   1.000000
   18       -6.539972   1.000000
   19       -6.482436   1.000000
   20       -5.803598   1.000000
   21       -5.792975   1.000000
   22       -5.686803   1.000000
   23       -4.934886   1.000000
   24       -4.916863   1.000000
   25       -4.810491   1.000000
   26       -4.682198   1.000000
   27       -4.667431   1.000000
   28       -4.653620   1.000000
   29       -4.611861   1.000000
   30       -4.529512   1.000000
   31       -4.374793   1.000000
   32       -4.330254   1.000000
   33       -4.210888   1.000000
   34       -4.200550   1.000000
   35       -4.057521   1.000000
   36       -4.030853   1.000000
   37       -3.998785   1.000000
   38       -3.982221   1.000000
   39       -3.956238   1.000000
   40       -3.849819   1.000000
   41       -3.717264   1.000000
   42       -3.686905   1.000000
   43       -3.504221   1.000000
   44       -3.475310   1.000000
   45       -3.393899   1.000000
   46       -3.193656   1.000000
   47       -3.120700   1.000000
   48       -2.957250   1.000000
   49       -2.894262   1.000000
   50       -2.824427   1.000000
   51       -2.716723   1.000000
   52       -2.359440   1.000000
   53       -2.345162   1.000000
   54       -2.143487   1.000000
   55       -2.116720   1.000000
   56       -1.877307   1.000000
   57       -1.815917   1.000000
   58       -1.707037   1.000000
   59       -1.660440   1.000000
   60       -1.590733   1.000000
   61       -1.535397   1.000002
   62       -1.489259   1.000010
   63       -1.316897   1.001122
   64       -1.181478   1.013306
   65       -1.138290   1.022419
   66       -1.097997   1.031304
   67       -1.064059   1.035409
   68       -1.003009   1.017383
   69       -0.949431   0.948857
   70       -0.901257   0.828561
   71       -0.821390   0.524970
   72       -0.786681   0.379507
   73       -0.771880   0.320262
   74       -0.744711   0.220303
   75       -0.709138   0.112970
   76       -0.703683   0.099228
   77       -0.669867   0.030700
   78       -0.533560  -0.031415
   79       -0.526293  -0.029979
   80       -0.495270  -0.023016
   81       -0.366974  -0.003382
   82       -0.199324  -0.000059
   83       -0.083441  -0.000001
   84       -0.011423  -0.000000
   85        0.027284  -0.000000
   86        0.066272  -0.000000
   87        0.319922  -0.000000
   88        0.444813  -0.000000
   89        1.195022  -0.000000
   90        1.484427  -0.000000
   91        1.624023  -0.000000
   92        1.626006  -0.000000
   93        1.729162  -0.000000
   94        1.804192  -0.000000
   95        2.575230  -0.000000
   96        2.587503  -0.000000
 
  0.1875000E+00  0.6250000E-01  0.0000000E+00  0.2083333E-01
    1       -9.989107   1.000000
    2       -8.720248   1.000000
    3       -7.652320   1.000000
    4       -7.545995   1.000000
    5       -7.445956   1.000000
    6       -7.367696   1.000000
    7       -7.249853   1.000000
    8       -7.228938   1.000000
    9       -7.180615   1.000000
   10       -7.113579   1.000000
   11       -6.749932   1.000000
   12       -6.732414   1.000000
   13       -6.725594   1.000000
   14       -6.714413   1.000000
   15       -6.648084   1.000000
   16       -6.493102   1.000000
   17       -6.433329   1.000000
   18       -6.384484   1.000000
   19       -6.309523   1.000000
   20       -5.745446   1.000000
   21       -5.729171   1.000000
   22       -5.632868   1.000000
   23       -4.977533   1.000000
   24       -4.911399   1.000000
   25       -4.851185   1.000000
   26       -4.729029   1.000000
   27       -4.667886   1.000000
   28       -4.596323   1.000000
   29       -4.582170   1.000000
   30       -4.549102   1.000000
   31       -4.479825   1.000000
   32       -4.217977   1.000000
   33       -4.181175   1.000000
   34       -4.133940   1.000000
   35       -4.110291   1.000000
   36       -4.041231   1.000000
   37       -4.008370   1.000000
   38       -3.991837   1.000000
   39       -3.932692   1.000000
   40       -3.868651   1.000000
   41       -3.795605   1.000000
   42       -3.652852   1.000000
   43       -3.626756   1.000000
   44       -3.555226   1.000000
   45       -3.538748   1.000000
   46       -3.480705   1.000000
   47       -3.286238   1.000000
   48       -3.151794   1.000000
   49       -2.954227   1.000000
   50       -2.833569   1.000000
   51       -2.685435   1.000000
   52       -2.474949   1.000000
   53       -2.439229   1.000000
   54       -2.317611   1.000000
   55       -2.162612   1.000000
   56       -2.029198   1.000000
   57       -2.007383   1.000000
   58       -1.894851   1.000000
   59       -1.875815   1.000000
   60       -1.813335   1.000000
   61       -1.764061   1.000000
   62       -1.698764   1.000000
   63       -1.645195   1.000000
   64       -1.568996   1.000001
   65       -1.523749   1.000003
   66       -1.451893   1.000033
   67       -1.281715   1.002381
   68       -1.205617   1.009346
   69       -1.159584   1.017663
   70       -1.076676   1.034550
   71       -1.058954   1.035449
   72       -1.029132   1.030836
   73       -0.965510   0.976164
   74       -0.954166   0.957549
   75       -0.861245   0.688119
   76       -0.838024   0.594700
   77       -0.803238   0.448281
   78       -0.767296   0.302506
   79       -0.741702   0.210101
   80       -0.640560  -0.006754
   81       -0.566748  -0.035404
   82       -0.482063  -0.020002
   83       -0.370435  -0.003614
   84       -0.306528  -0.000946
   85       -0.186314  -0.000040
   86        0.173667  -0.000000
   87        0.258281  -0.000000
   88        0.810839  -0.000000
   89        0.839380  -0.000000
   90        1.093697  -0.000000
   91        1.280724  -0.000000
   92        1.614745  -0.000000
   93        2.134336  -0.000000
   94        2.516233  -0.000000
   95        3.007756  -0.000000
   96        3.361617  -0.000000
 
  0.1250000E+00  0.1875000E+00  0.0000000E+00  0.2083333E-01
    1       -9.989099   1.000000
    2       -8.720246   1.000000
    3       -7.652329   1.000000
    4       -7.545992   1.000000
    5       -7.445900   1.000000
    6       -7.367502   1.000000
    7       -7.249779   1.000000
    8       -7.228738   1.000000
    9       -7.180937   1.000000
   10       -7.113675   1.000000
   11       -6.750049   1.000000
   12       -6.734822   1.000000
   13       -6.721546   1.000000
   14       -6.716517   1.000000
   15       -6.646652   1.000000
   16       -6.496394   1.000000
   17       -6.435521   1.000000
   18       -6.375234   1.000000
   19       -6.314389   1.000000
   20       -5.739919   1.000000
   21       -5.733939   1.000000
   22       -5.633699   1.000000
   23       -4.971143   1.000000
   24       -4.917649   1.000000
   25       -4.849987   1.000000
   26       -4.737556   1.000000
   27       -4.664029   1.000000
   28       -4.593502   1.000000
   29       -4.582182   1.000000
   30       -4.547302   1.000000
   31       -4.480732   1.000000
   32       -4.219301   1.000000
   33       -4.180971   1.000000
   34       -4.136068   1.000000
   35       -4.107191   1.000000
   36       -4.036833   1.000000
   37       -4.012598   1.000000
   38       -3.983243   1.000000
   39       -3.936458   1.000000
   40       -3.871900   1.000000
   41       -3.797093   1.000000
   42       -3.663287   1.000000
   43       -3.612143   1.000000
   44       -3.559037   1.000000
   45       -3.542361   1.000000
   46       -3.472345   1.000000
   47       -3.305991   1.000000
   48       -3.137480   1.000000
   49       -2.961694   1.000000
   50       -2.815872   1.000000
   51       -2.697792   1.000000
   52       -2.478215   1.000000
   53       -2.436129   1.000000
   54       -2.294764   1.000000
   55       -2.177340   1.000000
   56       -2.027902   1.000000
   57       -2.005629   1.000000
   58       -1.920776   1.000000
   59       -1.849965   1.000000
   60       -1.818882   1.000000
   61       -1.777436   1.000000
   62       -1.710579   1.000000
   63       -1.619069   1.000000
   64       -1.588763   1.000000
   65       -1.519892   1.000004
   66       -1.442189   1.000043
   67       -1.281986   1.002368
   68       -1.217132   1.007784
   69       -1.145189   1.020840
   70       -1.087156   1.033180
   71       -1.040188   1.033653
   72       -1.026078   1.029786
   73       -0.971023   0.984117
   74       -0.946469   0.943137
   75       -0.880861   0.760921
   76       -0.838937   0.598479
   77       -0.811800   0.484407
   78       -0.760721   0.277624
   79       -0.731882   0.178189
   80       -0.647944   0.000924
   81       -0.548112  -0.033802
   82       -0.457490  -0.014820
   83       -0.410622  -0.007385
   84       -0.304596  -0.000905
   85       -0.193538  -0.000050
   86        0.177218  -0.000000
   87        0.267015  -0.000000
   88        0.803707  -0.000000
   89        0.841423  -0.000000
   90        1.092924  -0.000000
   91        1.282465  -0.000000
   92        1.614209  -0.000000
   93        2.135560  -0.000000
   94        2.515718  -0.000000
   95        3.007654  -0.000000
   96        3.361567  -0.000000
 
 -0.6250000E-01  0.1250000E+00  0.0000000E+00  0.2083333E-01
    1       -9.989120   1.000000
    2       -8.720249   1.000000
    3       -7.652318   1.000000
    4       -7.546029   1.000000
    5       -7.445850   1.000000
    6       -7.368068   1.000000
    7       -7.249683   1.000000
    8       -7.229319   1.000000
    9       -7.180626   1.000000
   10       -7.113258   1.000000
   11       -6.749850   1.000000
   12       -6.731628   1.000000
   13       -6.722287   1.000000
   14       -6.719849   1.000000
   15       -6.646402   1.000000
   16       -6.487800   1.000000
   17       -6.441858   1.000000
   18       -6.383137   1.000000
   19       -6.307720   1.000000
   20       -5.747747   1.000000
   21       -5.727932   1.000000
   22       -5.631679   1.000000
   23       -4.981220   1.000000
   24       -4.907712   1.000000
   25       -4.852366   1.000000
   26       -4.725540   1.000000
   27       -4.668532   1.000000
   28       -4.591241   1.000000
   29       -4.583957   1.000000
   30       -4.556020   1.000000
   31       -4.476996   1.000000
   32       -4.214389   1.000000
   33       -4.181972   1.000000
   34       -4.142696   1.000000
   35       -4.104720   1.000000
   36       -4.045620   1.000000
   37       -4.020703   1.000000
   38       -3.987117   1.000000
   39       -3.924225   1.000000
   40       -3.867767   1.000000
   41       -3.791358   1.000000
   42       -3.656929   1.000000
   43       -3.633818   1.000000
   44       -3.553543   1.000000
   45       -3.528002   1.000000
   46       -3.477122   1.000000
   47       -3.304097   1.000000
   48       -3.114516   1.000000
   49       -2.986235   1.000000
   50       -2.835912   1.000000
   51       -2.673182   1.000000
   52       -2.483855   1.000000
   53       -2.425972   1.000000
   54       -2.349423   1.000000
   55       -2.142003   1.000000
   56       -2.045249   1.000000
   57       -1.988885   1.000000
   58       -1.936193   1.000000
   59       -1.848811   1.000000
   60       -1.803169   1.000000
   61       -1.721640   1.000000
   62       -1.711461   1.000000
   63       -1.650110   1.000000
   64       -1.560669   1.000001
   65       -1.542263   1.000002
   66       -1.442053   1.000044
   67       -1.293237   1.001876
   68       -1.227583   1.006543
   69       -1.161715   1.017211
   70       -1.099502   1.031015
   71       -1.057831   1.035431
   72       -0.992961   1.009150
   73       -0.970146   0.982898
   74       -0.926893   0.899802
   75       -0.856669   0.670230
   76       -0.846840   0.630882
   77       -0.830237   0.562231
   78       -0.782366   0.361966
   79       -0.698547   0.086971
   80       -0.653660   0.007653
   81       -0.590919  -0.033627
   82       -0.470400  -0.017453
   83       -0.363920  -0.003188
   84       -0.297887  -0.000775
   85       -0.195828  -0.000053
   86        0.175650  -0.000000
   87        0.259124  -0.000000
   88        0.807530  -0.000000
   89        0.842492  -0.000000
   90        1.091579  -0.000000
   91        1.280436  -0.000000
   92        1.615582  -0.000000
   93        2.134233  -0.000000
   94        2.516349  -0.000000
   95        3.007811  -0.000000
   96        3.362839  -0.000000
 
  0.3125000E+00  0.6250000E-01  0.0000000E+00  0.2083333E-01
    1       -9.535378   1.000000
    2       -8.284321   1.000000
    3       -7.544340   1.000000
    4       -7.224178   1.000000
    5       -7.135181   1.000000
    6       -7.118482   1.000000
    7       -7.105721   1.000000
    8       -6.910676   1.000000
    9       -6.879330   1.000000
   10       -6.803794   1.000000
   11       -6.671057   1.000000
   12       -6.514757   1.000000
   13       -6.498756   1.000000
   14       -6.453759   1.000000
   15       -6.348950   1.000000
   16       -6.289030   1.000000
   17       -6.128818   1.000000
   18       -6.050241   1.000000
   19       -5.927369   1.000000
   20       -5.623268   1.000000
   21       -5.578236   1.000000
   22       -5.517205   1.000000
   23       -5.114297   1.000000
   24       -5.049582   1.000000
   25       -4.953351   1.000000
   26       -4.851630   1.000000
   27       -4.797549   1.000000
   28       -4.725858   1.000000
   29       -4.533784   1.000000
   30       -4.488975   1.000000
   31       -4.431674   1.000000
   32       -4.298350   1.000000
   33       -4.276246   1.000000
   34       -4.247285   1.000000
   35       -4.137439   1.000000
   36       -4.089085   1.000000
   37       -4.013142   1.000000
   38       -3.932021   1.000000
   39       -3.903802   1.000000
   40       -3.881860   1.000000
   41       -3.836493   1.000000
   42       -3.814624   1.000000
   43       -3.791722   1.000000
   44       -3.780703   1.000000
   45       -3.637071   1.000000
   46       -3.534951   1.000000
   47       -3.463504   1.000000
   48       -3.250548   1.000000
   49       -3.075069   1.000000
   50       -3.003764   1.000000
   51       -2.891225   1.000000
   52       -2.796432   1.000000
   53       -2.722156   1.000000
   54       -2.692647   1.000000
   55       -2.603792   1.000000
   56       -2.586708   1.000000
   57       -2.529641   1.000000
   58       -2.486788   1.000000
   59       -2.390533   1.000000
   60       -2.357305   1.000000
   61       -2.204287   1.000000
   62       -2.131242   1.000000
   63       -2.031734   1.000000
   64       -1.923561   1.000000
   65       -1.874590   1.000000
   66       -1.826908   1.000000
   67       -1.689980   1.000000
   68       -1.619603   1.000000
   69       -1.563552   1.000001
   70       -1.517352   1.000004
   71       -1.479599   1.000014
   72       -1.366111   1.000347
   73       -1.277300   1.002603
   74       -1.268204   1.003117
   75       -1.214685   1.008099
   76       -1.128999   1.024567
   77       -1.031823   1.031659
   78       -0.983636   0.999751
   79       -0.919557   0.881074
   80       -0.817546   0.508716
   81       -0.763396   0.287661
   82       -0.728933   0.169030
   83       -0.648869   0.001966
   84       -0.561004  -0.035130
   85       -0.462269  -0.015769
   86        0.303358  -0.000000
   87        0.364391  -0.000000
   88        0.541735  -0.000000
   89        0.930077  -0.000000
   90        1.690469  -0.000000
   91        1.893779  -0.000000
   92        1.934046  -0.000000
   93        2.279450  -0.000000
   94        2.660359  -0.000000
   95        3.227391  -0.000000
   96        3.908283  -0.000000
 
  0.2500000E+00  0.3125000E+00  0.0000000E+00  0.2083333E-01
    1       -9.535328   1.000000
    2       -8.284303   1.000000
    3       -7.544263   1.000000
    4       -7.224247   1.000000
    5       -7.131808   1.000000
    6       -7.120877   1.000000
    7       -7.105470   1.000000
    8       -6.909420   1.000000
    9       -6.880899   1.000000
   10       -6.804426   1.000000
   11       -6.671302   1.000000
   12       -6.514590   1.000000
   13       -6.498017   1.000000
   14       -6.454967   1.000000
   15       -6.347351   1.000000
   16       -6.292040   1.000000
   17       -6.132833   1.000000
   18       -6.035193   1.000000
   19       -5.938887   1.000000
   20       -5.608345   1.000000
   21       -5.586923   1.000000
   22       -5.523161   1.000000
   23       -5.106018   1.000000
   24       -5.051230   1.000000
   25       -4.958310   1.000000
   26       -4.858568   1.000000
   27       -4.790651   1.000000
   28       -4.731152   1.000000
   29       -4.538151   1.000000
   30       -4.482825   1.000000
   31       -4.428037   1.000000
   32       -4.299013   1.000000
   33       -4.268162   1.000000
   34       -4.240588   1.000000
   35       -4.143751   1.000000
   36       -4.085057   1.000000
   37       -4.024617   1.000000
   38       -3.933744   1.000000
   39       -3.894633   1.000000
   40       -3.876287   1.000000
   41       -3.837492   1.000000
   42       -3.823865   1.000000
   43       -3.795488   1.000000
   44       -3.774395   1.000000
   45       -3.661335   1.000000
   46       -3.539675   1.000000
   47       -3.443542   1.000000
   48       -3.253974   1.000000
   49       -3.062260   1.000000
   50       -3.008363   1.000000
   51       -2.873340   1.000000
   52       -2.803957   1.000000
   53       -2.736965   1.000000
   54       -2.683504   1.000000
   55       -2.605384   1.000000
   56       -2.585889   1.000000
   57       -2.523139   1.000000
   58       -2.475024   1.000000
   59       -2.421158   1.000000
   60       -2.337335   1.000000
   61       -2.230759   1.000000
   62       -2.155263   1.000000
   63       -1.965928   1.000000
   64       -1.937192   1.000000
   65       -1.901890   1.000000
   66       -1.805530   1.000000
   67       -1.681158   1.000000
   68       -1.611127   1.000000
   69       -1.590114   1.000000
   70       -1.527755   1.000003
   71       -1.479391   1.000014
   72       -1.400089   1.000143
   73       -1.283644   1.002289
   74       -1.237805   1.005483
   75       -1.157171   1.018182
   76       -1.114652   1.027837
   77       -1.080519   1.034107
   78       -0.990211   1.006560
   79       -0.899479   0.823033
   80       -0.834575   0.580368
   81       -0.794613   0.412210
   82       -0.727506   0.164674
   83       -0.628244  -0.017178
   84       -0.508378  -0.026043
   85       -0.503745  -0.024977
   86        0.303179  -0.000000
   87        0.363603  -0.000000
   88        0.543753  -0.000000
   89        0.927180  -0.000000
   90        1.708690  -0.000000
   91        1.886528  -0.000000
   92        1.907780  -0.000000
   93        2.297577  -0.000000
   94        2.660425  -0.000000
   95        3.225414  -0.000000
   96        3.908089  -0.000000
 
 -0.6250000E-01  0.2500000E+00  0.0000000E+00  0.2083333E-01
    1       -9.535400   1.000000
    2       -8.284321   1.000000
    3       -7.544357   1.000000
    4       -7.224212   1.000000
    5       -7.135181   1.000000
    6       -7.118551   1.000000
    7       -7.105835   1.000000
    8       -6.910994   1.000000
    9       -6.879311   1.000000
   10       -6.803861   1.000000
   11       -6.671230   1.000000
   12       -6.515935   1.000000
   13       -6.495999   1.000000
   14       -6.455211   1.000000
   15       -6.342680   1.000000
   16       -6.295643   1.000000
   17       -6.128979   1.000000
   18       -6.048596   1.000000
   19       -5.927865   1.000000
   20       -5.623033   1.000000
   21       -5.578593   1.000000
   22       -5.516685   1.000000
   23       -5.113200   1.000000
   24       -5.051477   1.000000
   25       -4.953116   1.000000
   26       -4.850721   1.000000
   27       -4.798700   1.000000
   28       -4.725898   1.000000
   29       -4.531831   1.000000
   30       -4.484773   1.000000
   31       -4.435962   1.000000
   32       -4.291503   1.000000
   33       -4.280438   1.000000
   34       -4.256318   1.000000
   35       -4.135244   1.000000
   36       -4.088507   1.000000
   37       -4.010065   1.000000
   38       -3.942223   1.000000
   39       -3.906052   1.000000
   40       -3.872719   1.000000
   41       -3.830570   1.000000
   42       -3.822667   1.000000
   43       -3.789624   1.000000
   44       -3.779924   1.000000
   45       -3.634092   1.000000
   46       -3.530243   1.000000
   47       -3.462594   1.000000
   48       -3.251748   1.000000
   49       -3.085507   1.000000
   50       -3.005277   1.000000
   51       -2.888288   1.000000
   52       -2.788009   1.000000
   53       -2.735786   1.000000
   54       -2.680056   1.000000
   55       -2.604070   1.000000
   56       -2.589719   1.000000
   57       -2.543576   1.000000
   58       -2.487824   1.000000
   59       -2.404894   1.000000
   60       -2.336220   1.000000
   61       -2.191172   1.000000
   62       -2.111972   1.000000
   63       -2.067426   1.000000
   64       -1.907123   1.000000
   65       -1.859021   1.000000
   66       -1.826439   1.000000
   67       -1.720594   1.000000
   68       -1.606466   1.000000
   69       -1.551076   1.000001
   70       -1.530590   1.000003
   71       -1.466521   1.000021
   72       -1.396220   1.000158
   73       -1.282466   1.002345
   74       -1.266050   1.003250
   75       -1.205207   1.009405
   76       -1.121532   1.026286
   77       -1.023672   1.028870
   78       -0.984915   1.001145
   79       -0.918963   0.879498
   80       -0.819395   0.516537
   81       -0.757607   0.266095
   82       -0.737829   0.197258
   83       -0.662334   0.019239
   84       -0.552384  -0.034339
   85       -0.460123  -0.015339
   86        0.303429  -0.000000
   87        0.365341  -0.000000
   88        0.540662  -0.000000
   89        0.929053  -0.000000
   90        1.690416  -0.000000
   91        1.904880  -0.000000
   92        1.924087  -0.000000
   93        2.279798  -0.000000
   94        2.658955  -0.000000
   95        3.228551  -0.000000
   96        3.908305  -0.000000
 
  0.4375000E+00  0.6250000E-01  0.0000000E+00  0.2083333E-01
    1       -8.896129   1.000000
    2       -7.910845   1.000000
    3       -7.722134   1.000000
    4       -7.146199   1.000000
    5       -6.786410   1.000000
    6       -6.772205   1.000000
    7       -6.623789   1.000000
    8       -6.575518   1.000000
    9       -6.545465   1.000000
   10       -6.536177   1.000000
   11       -6.485917   1.000000
   12       -6.247312   1.000000
   13       -6.185892   1.000000
   14       -6.077252   1.000000
   15       -6.058704   1.000000
   16       -5.992659   1.000000
   17       -5.844005   1.000000
   18       -5.693383   1.000000
   19       -5.537719   1.000000
   20       -5.438865   1.000000
   21       -5.396125   1.000000
   22       -5.354681   1.000000
   23       -5.290978   1.000000
   24       -5.216888   1.000000
   25       -5.065241   1.000000
   26       -5.033252   1.000000
   27       -4.979587   1.000000
   28       -4.779894   1.000000
   29       -4.733955   1.000000
   30       -4.684174   1.000000
   31       -4.642914   1.000000
   32       -4.506209   1.000000
   33       -4.465301   1.000000
   34       -4.430922   1.000000
   35       -4.350910   1.000000
   36       -4.229944   1.000000
   37       -4.140669   1.000000
   38       -4.092070   1.000000
   39       -3.982273   1.000000
   40       -3.898869   1.000000
   41       -3.798416   1.000000
   42       -3.779864   1.000000
   43       -3.718948   1.000000
   44       -3.682643   1.000000
   45       -3.649430   1.000000
   46       -3.594282   1.000000
   47       -3.559839   1.000000
   48       -3.500903   1.000000
   49       -3.385973   1.000000
   50       -3.326455   1.000000
   51       -3.286442   1.000000
   52       -3.238318   1.000000
   53       -3.195132   1.000000
   54       -3.037346   1.000000
   55       -2.998569   1.000000
   56       -2.920467   1.000000
   57       -2.848861   1.000000
   58       -2.793091   1.000000
   59       -2.748105   1.000000
   60       -2.550640   1.000000
   61       -2.493003   1.000000
   62       -2.394418   1.000000
   63       -2.351261   1.000000
   64       -2.283252   1.000000
   65       -2.188090   1.000000
   66       -2.157773   1.000000
   67       -2.110189   1.000000
   68       -1.972153   1.000000
   69       -1.936686   1.000000
   70       -1.883834   1.000000
   71       -1.868118   1.000000
   72       -1.780168   1.000000
   73       -1.644454   1.000000
   74       -1.440573   1.000046
   75       -1.401336   1.000138
   76       -1.315625   1.001154
   77       -1.215737   1.007962
   78       -1.058028   1.035435
   79       -0.938468   0.926593
   80       -0.850189   0.644419
   81       -0.805545   0.457993
   82       -0.721402   0.146578
   83       -0.708575   0.111518
   84       -0.569934  -0.035457
   85       -0.478864  -0.019289
   86       -0.215640  -0.000094
   87        0.684147  -0.000000
   88        1.009180  -0.000000
   89        1.067626  -0.000000
   90        1.771540  -0.000000
   91        1.959049  -0.000000
   92        2.109654  -0.000000
   93        2.436418  -0.000000
   94        3.026753  -0.000000
   95        3.575697  -0.000000
   96        3.997322  -0.000000
 
  0.3750000E+00  0.4375000E+00  0.0000000E+00  0.2083333E-01
    1       -8.895967   1.000000
    2       -7.910534   1.000000
    3       -7.722229   1.000000
    4       -7.146980   1.000000
    5       -6.783580   1.000000
    6       -6.772144   1.000000
    7       -6.616212   1.000000
    8       -6.565667   1.000000
    9       -6.556794   1.000000
   10       -6.544508   1.000000
   11       -6.486014   1.000000
   12       -6.247554   1.000000
   13       -6.184972   1.000000
   14       -6.081655   1.000000
   15       -6.058594   1.000000
   16       -5.990455   1.000000
   17       -5.841877   1.000000
   18       -5.686779   1.000000
   19       -5.550598   1.000000
   20       -5.446878   1.000000