   17   17    1    1
  0.4847811E+02  0.5557859E-09  0.5557859E-09  0.3080696E-08  0.5000000E-15
  1.000000000000000E-004
  CAR 
 unknown system                          
    161     52     96
 
  0.6250000E-01  0.6250000E-01  0.0000000E+00  0.2083333E-01
    1      -10.108378   1.000000
    2       -8.844176   1.000000
    3       -7.761833   1.000000
    4       -7.651091   1.000000
    5       -7.465457   1.000000
    6       -7.436584   1.000000
    7       -7.341834   1.000000
    8       -7.296993   1.000000
    9       -7.269891   1.000000
   10       -7.156440   1.000000
   11       -6.882231   1.000000
   12       -6.806090   1.000000
   13       -6.756061   1.000000
   14       -6.550660   1.000000
   15       -6.524467   1.000000
   16       -6.502208   1.000000
   17       -6.438370   1.000000
   18       -6.395307   1.000000
   19       -6.383304   1.000000
   20       -5.972693   1.000000
   21       -5.634625   1.000000
   22       -5.586994   1.000000
   23       -5.506783   1.000000
   24       -4.879394   1.000000
   25       -4.817122   1.000000
   26       -4.711915   1.000000
   27       -4.635727   1.000000
   28       -4.614841   1.000000
   29       -4.587699   1.000000
   30       -4.540692   1.000000
   31       -4.393149   1.000000
   32       -4.346121   1.000000
   33       -4.292721   1.000000
   34       -4.176676   1.000000
   35       -4.135572   1.000000
   36       -4.028066   1.000000
   37       -4.003143   1.000000
   38       -3.802762   1.000000
   39       -3.751156   1.000000
   40       -3.711579   1.000000
   41       -3.623903   1.000000
   42       -3.576069   1.000000
   43       -3.463414   1.000000
   44       -3.414544   1.000000
   45       -3.356022   1.000000
   46       -3.034176   1.000000
   47       -2.990978   1.000000
   48       -2.899973   1.000000
   49       -2.868075   1.000000
   50       -2.729538   1.000000
   51       -2.678993   1.000000
   52       -2.424173   1.000000
   53       -2.370980   1.000000
   54       -2.326149   1.000000
   55       -1.916268   1.000000
   56       -1.884581   1.000000
   57       -1.788503   1.000000
   58       -1.690309   1.000000
   59       -1.673250   1.000000
   60       -1.606851   1.000000
   61       -1.543217   1.000000
   62       -1.516317   1.000000
   63       -1.201598   1.002492
   64       -1.175780   1.004114
   65       -1.126000   1.009600
   66       -1.078355   1.018385
   67       -1.056091   1.023417
   68       -1.023181   1.030710
   69       -0.984328   1.035446
   70       -0.958290   1.032798
   71       -0.879576   0.963260
   72       -0.836582   0.867265
   73       -0.764675   0.613375
   74       -0.633624   0.119156
   75       -0.596959   0.038997
   76       -0.569492   0.000286
   77       -0.496257  -0.035407
   78       -0.406438  -0.020508
   79       -0.326487  -0.006652
   80       -0.284082  -0.003068
   81       -0.245540  -0.001380
   82       -0.189075  -0.000366
   83       -0.168378  -0.000215
   84       -0.009167  -0.000002
   85        0.067520  -0.000000
   86        0.173964  -0.000000
   87        0.448141  -0.000000
   88        0.473959  -0.000000
   89        1.214916  -0.000000
   90        1.456885  -0.000000
   91        1.602810  -0.000000
   92        1.709317  -0.000000
   93        1.784633  -0.000000
   94        1.824469  -0.000000
   95        2.445805  -0.000000
   96        2.581520  -0.000000
 
 -0.6250000E-01  0.1040834E-16  0.0000000E+00  0.1041667E-01
    1      -10.108375   1.000000
    2       -8.844160   1.000000
    3       -7.762129   1.000000
    4       -7.651199   1.000000
    5       -7.472123   1.000000
    6       -7.426825   1.000000
    7       -7.343978   1.000000
    8       -7.301575   1.000000
    9       -7.263806   1.000000
   10       -7.158560   1.000000
   11       -6.882882   1.000000
   12       -6.805514   1.000000
   13       -6.756220   1.000000
   14       -6.552593   1.000000
   15       -6.512277   1.000000
   16       -6.512142   1.000000
   17       -6.438849   1.000000
   18       -6.395449   1.000000
   19       -6.383379   1.000000
   20       -5.972291   1.000000
   21       -5.635029   1.000000
   22       -5.587186   1.000000
   23       -5.505576   1.000000
   24       -4.877488   1.000000
   25       -4.819783   1.000000
   26       -4.707683   1.000000
   27       -4.637645   1.000000
   28       -4.602545   1.000000
   29       -4.600145   1.000000
   30       -4.540043   1.000000
   31       -4.391318   1.000000
   32       -4.348067   1.000000
   33       -4.284827   1.000000
   34       -4.198140   1.000000
   35       -4.129250   1.000000
   36       -4.020876   1.000000
   37       -4.002573   1.000000
   38       -3.804312   1.000000
   39       -3.753931   1.000000
   40       -3.710828   1.000000
   41       -3.622537   1.000000
   42       -3.576275   1.000000
   43       -3.460993   1.000000
   44       -3.422745   1.000000
   45       -3.350356   1.000000
   46       -3.040718   1.000000
   47       -2.984557   1.000000
   48       -2.870720   1.000000
   49       -2.855032   1.000000
   50       -2.801795   1.000000
   51       -2.655660   1.000000
   52       -2.422343   1.000000
   53       -2.370911   1.000000
   54       -2.331350   1.000000
   55       -1.909393   1.000000
   56       -1.869159   1.000000
   57       -1.804485   1.000000
   58       -1.698196   1.000000
   59       -1.660400   1.000000
   60       -1.602429   1.000000
   61       -1.534440   1.000000
   62       -1.529331   1.000000
   63       -1.190040   1.003135
   64       -1.168973   1.004663
   65       -1.136390   1.008153
   66       -1.104713   1.013104
   67       -1.085580   1.016846
   68       -1.002729   1.034096
   69       -0.986330   1.035404
   70       -0.910458   1.004707
   71       -0.883285   0.969392
   72       -0.835688   0.864777
   73       -0.776594   0.661535
   74       -0.636467   0.126784
   75       -0.614740   0.073653
   76       -0.526749  -0.029883
   77       -0.520993  -0.031739
   78       -0.401799  -0.019469
   79       -0.336212  -0.007816
   80       -0.279843  -0.002822
   81       -0.228959  -0.000952
   82       -0.188728  -0.000363
   83       -0.187252  -0.000350
   84       -0.006918  -0.000002
   85        0.070932  -0.000000
   86        0.171684  -0.000000
   87        0.450763  -0.000000
   88        0.466100  -0.000000
   89        1.216056  -0.000000
   90        1.450282  -0.000000
   91        1.627681  -0.000000
   92        1.687150  -0.000000
   93        1.789586  -0.000000
   94        1.830362  -0.000000
   95        2.392903  -0.000000
   96        2.616943  -0.000000
 
  0.1875000E+00  0.6250000E-01  0.0000000E+00  0.2083333E-01
    1       -9.905375   1.000000
    2       -8.644890   1.000000
    3       -7.566148   1.000000
    4       -7.457638   1.000000
    5       -7.422915   1.000000
    6       -7.325085   1.000000
    7       -7.222042   1.000000
    8       -7.196274   1.000000
    9       -7.132344   1.000000
   10       -7.023208   1.000000
   11       -6.788119   1.000000
   12       -6.701964   1.000000
   13       -6.669717   1.000000
   14       -6.501953   1.000000
   15       -6.438739   1.000000
   16       -6.334069   1.000000
   17       -6.314236   1.000000
   18       -6.266299   1.000000
   19       -6.195483   1.000000
   20       -5.920608   1.000000
   21       -5.575123   1.000000
   22       -5.530446   1.000000
   23       -5.452174   1.000000
   24       -4.875634   1.000000
   25       -4.843083   1.000000
   26       -4.740879   1.000000
   27       -4.703540   1.000000
   28       -4.598470   1.000000
   29       -4.547812   1.000000
   30       -4.519523   1.000000
   31       -4.476050   1.000000
   32       -4.387237   1.000000
   33       -4.227020   1.000000
   34       -4.099975   1.000000
   35       -4.078240   1.000000
   36       -3.983194   1.000000
   37       -3.950537   1.000000
   38       -3.862914   1.000000
   39       -3.817109   1.000000
   40       -3.749048   1.000000
   41       -3.607723   1.000000
   42       -3.592370   1.000000
   43       -3.560403   1.000000
   44       -3.513885   1.000000
   45       -3.425364   1.000000
   46       -3.344295   1.000000
   47       -3.213373   1.000000
   48       -3.093667   1.000000
   49       -2.934061   1.000000
   50       -2.790366   1.000000
   51       -2.658503   1.000000
   52       -2.610104   1.000000
   53       -2.449380   1.000000
   54       -2.411884   1.000000
   55       -2.035327   1.000000
   56       -1.955700   1.000000
   57       -1.918529   1.000000
   58       -1.887749   1.000000
   59       -1.812956   1.000000
   60       -1.748820   1.000000
   61       -1.708852   1.000000
   62       -1.696323   1.000000
   63       -1.584706   1.000000
   64       -1.538562   1.000000
   65       -1.504347   1.000000
   66       -1.435862   1.000005
   67       -1.288115   1.000348
   68       -1.208887   1.002147
   69       -1.148512   1.006677
   70       -1.053500   1.024017
   71       -1.041644   1.026743
   72       -0.965229   1.034160
   73       -0.935059   1.023753
   74       -0.837329   0.869329
   75       -0.806808   0.774282
   76       -0.770564   0.637368
   77       -0.715015   0.405072
   78       -0.697154   0.332642
   79       -0.666622   0.219576
   80       -0.595000   0.035655
   81       -0.535415  -0.026228
   82       -0.408606  -0.020999
   83       -0.331948  -0.007288
   84       -0.297939  -0.004000
   85       -0.110516  -0.000043
   86        0.243238  -0.000000
   87        0.318265  -0.000000
   88        0.571964  -0.000000
   89        0.877354  -0.000000
   90        1.081949  -0.000000
   91        1.349290  -0.000000
   92        1.633375  -0.000000
   93        2.182871  -0.000000
   94        2.493740  -0.000000
   95        2.780658  -0.000000
   96        3.070204  -0.000000
 
  0.1250000E+00  0.1875000E+00  0.0000000E+00  0.2083333E-01
    1       -9.905397   1.000000
    2       -8.645043   1.000000
    3       -7.561862   1.000000
    4       -7.456893   1.000000
    5       -7.413675   1.000000
    6       -7.345236   1.000000
    7       -7.217908   1.000000
    8       -7.184228   1.000000
    9       -7.154141   1.000000
   10       -7.011411   1.000000
   11       -6.780441   1.000000
   12       -6.709499   1.000000
   13       -6.666302   1.000000
   14       -6.506612   1.000000
   15       -6.438263   1.000000
   16       -6.332488   1.000000
   17       -6.309167   1.000000
   18       -6.270825   1.000000
   19       -6.190183   1.000000
   20       -5.924390   1.000000
   21       -5.574378   1.000000
   22       -5.526812   1.000000
   23       -5.462079   1.000000
   24       -4.902486   1.000000
   25       -4.796819   1.000000
   26       -4.777880   1.000000
   27       -4.720034   1.000000
   28       -4.611200   1.000000
   29       -4.538982   1.000000
   30       -4.520751   1.000000
   31       -4.449964   1.000000
   32       -4.381496   1.000000
   33       -4.216865   1.000000
   34       -4.081477   1.000000
   35       -4.067499   1.000000
   36       -4.026998   1.000000
   37       -3.961447   1.000000
   38       -3.855825   1.000000
   39       -3.793348   1.000000
   40       -3.743063   1.000000
   41       -3.633697   1.000000
   42       -3.574245   1.000000
   43       -3.550173   1.000000
   44       -3.529688   1.000000
   45       -3.427995   1.000000
   46       -3.352457   1.000000
   47       -3.218580   1.000000
   48       -3.108824   1.000000
   49       -2.848728   1.000000
   50       -2.790072   1.000000
   51       -2.678488   1.000000
   52       -2.597739   1.000000
   53       -2.468164   1.000000
   54       -2.416747   1.000000
   55       -2.068644   1.000000
   56       -1.919897   1.000000
   57       -1.885288   1.000000
   58       -1.853537   1.000000
   59       -1.822453   1.000000
   60       -1.806315   1.000000
   61       -1.731356   1.000000
   62       -1.674443   1.000000
   63       -1.604558   1.000000
   64       -1.553045   1.000000
   65       -1.510075   1.000000
   66       -1.417766   1.000008
   67       -1.251866   1.000837
   68       -1.213271   1.001960
   69       -1.152132   1.006278
   70       -1.129840   1.009045
   71       -1.026816   1.029976
   72       -0.988535   1.035326
   73       -0.922522   1.015425
   74       -0.866679   0.939328
   75       -0.825866   0.836167
   76       -0.736012   0.493244
   77       -0.722230   0.435138
   78       -0.680066   0.267331
   79       -0.636718   0.127467
   80       -0.572614   0.003837
   81       -0.493845  -0.035452
   82       -0.459959  -0.032193
   83       -0.357416  -0.010864
   84       -0.285937  -0.003181
   85       -0.110053  -0.000042
   86        0.238454  -0.000000
   87        0.329740  -0.000000
   88        0.574925  -0.000000
   89        0.883500  -0.000000
   90        1.103341  -0.000000
   91        1.335591  -0.000000
   92        1.635462  -0.000000
   93        2.179790  -0.000000
   94        2.499575  -0.000000
   95        2.793949  -0.000000
   96        3.080091  -0.000000
 
 -0.6250000E-01  0.1250000E+00  0.0000000E+00  0.2083333E-01
    1       -9.905383   1.000000
    2       -8.644957   1.000000
    3       -7.563639   1.000000
    4       -7.457404   1.000000
    5       -7.419855   1.000000
    6       -7.335339   1.000000
    7       -7.219913   1.000000
    8       -7.188276   1.000000
    9       -7.144044   1.000000
   10       -7.016263   1.000000
   11       -6.786709   1.000000
   12       -6.704391   1.000000
   13       -6.667586   1.000000
   14       -6.507309   1.000000
   15       -6.435393   1.000000
   16       -6.327924   1.000000
   17       -6.317110   1.000000
   18       -6.267878   1.000000
   19       -6.194818   1.000000
   20       -5.921774   1.000000
   21       -5.574172   1.000000
   22       -5.529703   1.000000
   23       -5.456529   1.000000
   24       -4.880119   1.000000
   25       -4.838656   1.000000
   26       -4.746255   1.000000
   27       -4.707654   1.000000
   28       -4.609343   1.000000
   29       -4.549646   1.000000
   30       -4.509236   1.000000
   31       -4.464633   1.000000
   32       -4.392092   1.000000
   33       -4.221561   1.000000
   34       -4.095668   1.000000
   35       -4.067212   1.000000
   36       -4.003327   1.000000
   37       -3.949933   1.000000
   38       -3.865358   1.000000
   39       -3.809802   1.000000
   40       -3.745407   1.000000
   41       -3.617342   1.000000
   42       -3.588657   1.000000
   43       -3.542686   1.000000
   44       -3.524955   1.000000
   45       -3.427984   1.000000
   46       -3.343569   1.000000
   47       -3.230514   1.000000
   48       -3.091626   1.000000
   49       -2.923517   1.000000
   50       -2.747320   1.000000
   51       -2.690242   1.000000
   52       -2.602344   1.000000
   53       -2.456301   1.000000
   54       -2.411485   1.000000
   55       -2.028501   1.000000
   56       -1.955315   1.000000
   57       -1.926656   1.000000
   58       -1.853380   1.000000
   59       -1.818790   1.000000
   60       -1.762542   1.000000
   61       -1.757194   1.000000
   62       -1.676604   1.000000
   63       -1.579175   1.000000
   64       -1.555091   1.000000
   65       -1.504994   1.000000
   66       -1.421844   1.000007
   67       -1.292366   1.000313
   68       -1.204677   1.002341
   69       -1.136345   1.008159
   70       -1.064109   1.021570
   71       -1.030897   1.029119
   72       -0.976246   1.035298
   73       -0.945407   1.028715
   74       -0.858703   0.922456
   75       -0.801562   0.755882
   76       -0.737561   0.499800
   77       -0.730730   0.470914
   78       -0.680457   0.268773
   79       -0.660622   0.199456
   80       -0.603717   0.051244
   81       -0.526397  -0.030009
   82       -0.442385  -0.028702
   83       -0.339414  -0.008230
   84       -0.274393  -0.002531
   85       -0.114249  -0.000048
   86        0.238060  -0.000000
   87        0.325076  -0.000000
   88        0.571319  -0.000000
   89        0.888339  -0.000000
   90        1.094492  -0.000000
   91        1.335537  -0.000000
   92        1.635221  -0.000000
   93        2.180265  -0.000000
   94        2.508071  -0.000000
   95        2.776942  -0.000000
   96        3.060695  -0.000000
 
  0.3125000E+00  0.6250000E-01  0.0000000E+00  0.2083333E-01
    1       -9.454091   1.000000
    2       -8.215228   1.000000
    3       -7.497594   1.000000
    4       -7.171743   1.000000
    5       -7.081613   1.000000
    6       -7.056974   1.000000
    7       -7.032530   1.000000
    8       -6.894265   1.000000
    9       -6.850930   1.000000
   10       -6.757002   1.000000
   11       -6.591099   1.000000
   12       -6.504771   1.000000
   13       -6.447734   1.000000
   14       -6.394813   1.000000
   15       -6.202670   1.000000
   16       -6.154924   1.000000
   17       -6.021503   1.000000
   18       -5.920254   1.000000
   19       -5.839386   1.000000
   20       -5.724582   1.000000
   21       -5.439000   1.000000
   22       -5.417291   1.000000
   23       -5.329902   1.000000
   24       -5.002792   1.000000
   25       -4.952794   1.000000
   26       -4.860358   1.000000
   27       -4.826755   1.000000
   28       -4.723374   1.000000
   29       -4.619756   1.000000
   30       -4.494638   1.000000
   31       -4.407716   1.000000
   32       -4.288593   1.000000
   33       -4.157448   1.000000
   34       -4.113480   1.000000
   35       -4.062831   1.000000
   36       -4.042299   1.000000
   37       -3.984624   1.000000
   38       -3.952491   1.000000
   39       -3.897530   1.000000
   40       -3.853651   1.000000
   41       -3.751039   1.000000
   42       -3.737719   1.000000
   43       -3.685505   1.000000
   44       -3.666073   1.000000
   45       -3.564852   1.000000
   46       -3.484506   1.000000
   47       -3.292441   1.000000
   48       -3.263117   1.000000
   49       -3.116961   1.000000
   50       -2.883801   1.000000
   51       -2.833497   1.000000
   52       -2.733351   1.000000
   53       -2.665146   1.000000
   54       -2.652485   1.000000
   55       -2.578399   1.000000
   56       -2.543656   1.000000
   57       -2.493893   1.000000
   58       -2.403933   1.000000
   59       -2.366611   1.000000
   60       -2.266869   1.000000
   61       -2.216992   1.000000
   62       -2.056206   1.000000
   63       -2.011954   1.000000
   64       -1.947444   1.000000
   65       -1.876453   1.000000
   66       -1.785966   1.000000
   67       -1.653996   1.000000
   68       -1.562434   1.000000
   69       -1.486076   1.000001
   70       -1.461548   1.000002
   71       -1.397672   1.000016
   72       -1.342412   1.000082
   73       -1.259591   1.000699
   74       -1.204659   1.002342
   75       -1.141004   1.007565
   76       -1.077338   1.018606
   77       -1.018985   1.031518
   78       -0.930892   1.021282
   79       -0.848977   0.899706
   80       -0.812563   0.793813
   81       -0.780921   0.678589
   82       -0.642779   0.144429
   83       -0.571882   0.002985
   84       -0.503780  -0.034945
   85       -0.405377  -0.020269
   86       -0.027560  -0.000003
   87        0.360637  -0.000000
   88        0.578139  -0.000000
   89        1.039961  -0.000000
   90        1.419315  -0.000000
   91        1.753469  -0.000000
   92        1.995312  -0.000000
   93        2.359771  -0.000000
   94        2.457570  -0.000000
   95        3.223643  -0.000000
   96        3.613272  -0.000000
 
  0.2500000E+00  0.3125000E+00  0.0000000E+00  0.2083333E-01
    1       -9.454177   1.000000
    2       -8.216254   1.000000
    3       -7.490695   1.000000
    4       -7.166382   1.000000
    5       -7.082973   1.000000
    6       -7.059837   1.000000
    7       -7.038890   1.000000
    8       -6.904870   1.000000
    9       -6.865085   1.000000
   10       -6.723681   1.000000
   11       -6.578837   1.000000
   12       -6.509008   1.000000
   13       -6.456017   1.000000
   14       -6.399450   1.000000
   15       -6.200147   1.000000
   16       -6.151360   1.000000
   17       -5.992273   1.000000
   18       -5.952355   1.000000
   19       -5.811850   1.000000
   20       -5.743565   1.000000
   21       -5.457028   1.000000
   22       -5.393034   1.000000
   23       -5.366157   1.000000
   24       -5.027746   1.000000
   25       -4.945183   1.000000
   26       -4.886794   1.000000
   27       -4.853164   1.000000
   28       -4.739317   1.000000
   29       -4.608671   1.000000
   30       -4.470989   1.000000
   31       -4.383637   1.000000
   32       -4.244093   1.000000
   33       -4.159002   1.000000
   34       -4.112985   1.000000
   35       -4.096939   1.000000
   36       -4.036170   1.000000
   37       -3.997765   1.000000
   38       -3.920639   1.000000
   39       -3.877679   1.000000
   40       -3.847202   1.000000
   41       -3.763897   1.000000
   42       -3.728008   1.000000
   43       -3.712410   1.000000
   44       -3.667991   1.000000
   45       -3.599577   1.000000
   46       -3.425990   1.000000
   47       -3.279351   1.000000
   48       -3.190734   1.000000
   49       -3.117698   1.000000
   50       -2.914035   1.000000
   51       -2.847587   1.000000
   52       -2.787207   1.000000
   53       -2.687712   1.000000
   54       -2.634225   1.000000
   55       -2.562946   1.000000
   56       -2.506454   1.000000
   57       -2.482886   1.000000
   58       -2.402896   1.000000
   59       -2.343447   1.000000
   60       -2.263726   1.000000
   61       -2.251124   1.000000
   62       -2.063927   1.000000
   63       -2.005192   1.000000
   64       -1.922985   1.000000
   65       -1.873796   1.000000
   66       -1.770985   1.000000
   67       -1.710069   1.000000
   68       -1.608942   1.000000
   69       -1.549153   1.000000
   70       -1.469444   1.000001
   71       -1.405703   1.000012
   72       -1.345646   1.000074
   73       -1.236546   1.001186
   74       -1.221495   1.001647
   75       -1.095592   1.014822
   76       -1.074432   1.019245
   77       -1.026190   1.030104
   78       -0.898259   0.990875
   79       -0.864679   0.935247
   80       -0.819999   0.817986
   81       -0.695435   0.325874
   82       -0.664381   0.211971
   83       -0.609068   0.061743
   84       -0.499681  -0.035259
   85       -0.425843  -0.024971
   86       -0.029203  -0.000003
   87        0.363458  -0.000000
   88        0.590195  -0.000000
   89        1.042267  -0.000000
   90        1.467976  -0.000000
   91        1.743138  -0.000000
   92        1.993595  -0.000000
   93        2.376371  -0.000000
   94        2.451588  -0.000000
   95        3.219629  -0.000000
   96        3.566585  -0.000000
 
 -0.6250000E-01  0.2500000E+00  0.0000000E+00  0.2083333E-01
    1       -9.454142   1.000000
    2       -8.216076   1.000000
    3       -7.491100   1.000000
    4       -7.160932   1.000000
    5       -7.106530   1.000000
    6       -7.052978   1.000000
    7       -7.029742   1.000000
    8       -6.900335   1.000000
    9       -6.865676   1.000000
   10       -6.718719   1.000000
   11       -6.594587   1.000000
   12       -6.511804   1.000000
   13       -6.438129   1.000000
   14       -6.412197   1.000000
   15       -6.192358   1.000000
   16       -6.150063   1.000000
   17       -5.997826   1.000000
   18       -5.949478   1.000000
   19       -5.837513   1.000000
   20       -5.723809   1.000000
   21       -5.448009   1.000000
   22       -5.404397   1.000000
   23       -5.358535   1.000000
   24       -5.004493   1.000000
   25       -4.939143   1.000000
   26       -4.912624   1.000000
   27       -4.823873   1.000000
   28       -4.741527   1.000000
   29       -4.610794   1.000000
   30       -4.484002   1.000000
   31       -4.382055   1.000000
   32       -4.264126   1.000000
   33       -4.146735   1.000000
   34       -4.117030   1.000000
   35       -4.062250   1.000000
   36       -4.042319   1.000000
   37       -3.982092   1.000000
   38       -3.949486   1.000000
   39       -3.884171   1.000000
   40       -3.850204   1.000000
   41       -3.797397   1.000000
   42       -3.734518   1.000000
   43       -3.702885   1.000000
   44       -3.649036   1.000000
   45       -3.591528   1.000000
   46       -3.430585   1.000000
   47       -3.284456   1.000000
   48       -3.230222   1.000000
   49       -3.119235   1.000000
   50       -2.907746   1.000000
   51       -2.849291   1.000000
   52       -2.760692   1.000000
   53       -2.676868   1.000000
   54       -2.640506   1.000000
   55       -2.569877   1.000000
   56       -2.515235   1.000000
   57       -2.474764   1.000000
   58       -2.386031   1.000000
   59       -2.355294   1.000000
   60       -2.263351   1.000000
   61       -2.250878   1.000000
   62       -2.060946   1.000000
   63       -2.009978   1.000000
   64       -1.941263   1.000000
   65       -1.855538   1.000000
   66       -1.792713   1.000000
   67       -1.675784   1.000000
   68       -1.591440   1.000000
   69       -1.532545   1.000000
   70       -1.441341   1.000004
   71       -1.419626   1.000008
   72       -1.340765   1.000085
   73       -1.281809   1.000408
   74       -1.205060   1.002323
   75       -1.154968   1.005979
   76       -1.050040   1.024817
   77       -1.016746   1.031929
   78       -0.897633   0.990079
   79       -0.870285   0.946433
   80       -0.810999   0.788574
   81       -0.697456   0.333837
   82       -0.647255   0.157531
   83       -0.616318   0.077110
   84       -0.505985  -0.034710
   85       -0.428472  -0.025577
   86       -0.028906  -0.000003
   87        0.362438  -0.000000
   88        0.587912  -0.000000
   89        1.048805  -0.000000
   90        1.465525  -0.000000
   91        1.747954  -0.000000
   92        1.968548  -0.000000
   93        2.369699  -0.000000
   94        2.469784  -0.000000
   95        3.219823  -0.000000
   96        3.576301  -0.000000
 
  0.4375000E+00  0.6250000E-01  0.0000000E+00  0.2083333E-01
    1       -8.819499   1.000000
    2       -7.841191   1.000000
    3       -7.666515   1.000000
    4       -7.113048   1.000000
    5       -6.803619   1.000000
    6       -6.697358   1.000000
    7       -6.615124   1.000000
    8       -6.559028   1.000000
    9       -6.490707   1.000000
   10       -6.445121   1.000000
   11       -6.407210   1.000000
   12       -6.251464   1.000000
   13       -6.143997   1.000000
   14       -6.066463   1.000000
   15       -6.009905   1.000000
   16       -5.945504   1.000000
   17       -5.837858   1.000000
   18       -5.619881   1.000000
   19       -5.470935   1.000000
   20       -5.390116   1.000000
   21       -5.346803   1.000000
   22       -5.238077   1.000000
   23       -5.178537   1.000000
   24       -5.121878   1.000000
   25       -5.064192   1.000000
   26       -4.980791   1.000000
   27       -4.932286   1.000000
   28       -4.821518   1.000000
   29       -4.641302   1.000000
   30       -4.586657   1.000000
   31       -4.559554   1.000000
   32       -4.541099   1.000000
   33       -4.401882   1.000000
   34       -4.309882   1.000000
   35       -4.279054   1.000000
   36       -4.206024   1.000000
   37       -4.075832   1.000000
   38       -4.022445   1.000000
   39       -3.960234   1.000000
   40       -3.846185   1.000000
   41       -3.804988   1.000000
   42       -3.716551   1.000000
   43       -3.660410   1.000000
   44       -3.620069   1.000000
   45       -3.583615   1.000000
   46       -3.510956   1.000000
   47       -3.473674   1.000000
   48       -3.410029   1.000000
   49       -3.338824   1.000000
   50       -3.297114   1.000000
   51       -3.282858   1.000000
   52       -3.201615   1.000000
   53       -3.102317   1.000000
   54       -3.052616   1.000000
   55       -2.968408   1.000000
   56       -2.881468   1.000000
   57       -2.840466   1.000000
   58       -2.746712   1.000000
   59       -2.673947   1.000000
   60       -2.631513   1.000000
   61       -2.457801   1.000000
   62       -2.365789   1.000000
   63       -2.284700   1.000000
   64       -2.236908   1.000000
   65       -2.146968   1.000000
   66       -2.071282   1.000000
   67       -2.028404   1.000000
   68       -1.972449   1.000000
   69       -1.893853   1.000000
   70       -1.804351   1.000000
   71       -1.740131   1.000000
   72       -1.722738   1.000000
   73       -1.521975   1.000000
   74       -1.425644   1.000006
   75       -1.341494   1.000084
   76       -1.241376   1.001064
   77       -1.192283   1.003000
   78       -1.098169   1.014324
   79       -1.008022   1.033370
   80       -0.850516   0.903465
   81       -0.820385   0.819208
   82       -0.741648   0.517090
   83       -0.609331   0.062278
   84       -0.516893  -0.032806
   85       -0.417308  -0.022996
   86       -0.259520  -0.001863
   87        0.576468  -0.000000
   88        0.730060  -0.000000
   89        1.197547  -0.000000
   90        1.581506  -0.000000
   91        1.836704  -0.000000
   92        2.144812  -0.000000
   93        2.542983  -0.000000
   94        2.634048  -0.000000
   95        3.494921  -0.000000
   96        3.841620  -0.000000
 
  0.3750000E+00  0.4375000E+00  0.0000000E+00  0.2083333E-01
    1       -8.819781   1.000000
    2       -7.850523   1.000000
    3       -7.654235   1.000000
    4       -7.108002   1.000000
    5       -6.804683   1.000000
    6       -6.675708   1.000000
    7       -6.644593   1.000000
    8       -6.545851   1.000000
    9       -6.496850   1.000000
   10       -6.459734   1.000000
   11       -6.386671   1.000000
   12       -6.247732   1.000000
   13       -6.143798   1.000000
   14       -6.052062   1.000000
   15       -6.004840   1.000000
   16       -5.953353   1.000000
   17       -5.782851   1.000000
   18       -5.677386   1.000000
   19       -5.468649   1.000000
   20       -5.413381   1.000000