 vasp.5.4.4.18Apr17-6-g9f103f2a35 (build Apr 28 2017 10:53:45) complex          
  
 executed on             LinuxIFC date 2020.02.16  21:23:47
 running on   24 total cores
 distrk:  each k-point on   24 cores,    1 groups
 distr:  one band on NCORES_PER_BAND=   1 cores,   24 groups


--------------------------------------------------------------------------------------------------------


 INCAR:
 POTCAR:    PAW_PBE Ir 06Sep2000                  
 POTCAR:    PAW_PBE Pt 04Feb2005                  
 POTCAR:    PAW_PBE Au 04Oct2007                  

 ----------------------------------------------------------------------------- 
|                                                                             |
|           W    W    AA    RRRRR   N    N  II  N    N   GGGG   !!!           |
|           W    W   A  A   R    R  NN   N  II  NN   N  G    G  !!!           |
|           W    W  A    A  R    R  N N  N  II  N N  N  G       !!!           |
|           W WW W  AAAAAA  RRRRR   N  N N  II  N  N N  G  GGG   !            |
|           WW  WW  A    A  R   R   N   NN  II  N   NN  G    G                |
|           W    W  A    A  R    R  N    N  II  N    N   GGGG   !!!           |
|                                                                             |
|      For optimal performance we recommend to set                            |
|        NCORE= 4 - approx SQRT( number of cores)                             |
|      NCORE specifies how many cores store one orbital (NPAR=cpu/NCORE).     |
|      This setting can  greatly improve the performance of VASP for DFT.     |
|      The default,   NCORE=1            might be grossly inefficient         |
|      on modern multi-core architectures or massively parallel machines.     |
|      Do your own testing !!!!                                               |
|      Unfortunately you need to use the default for GW and RPA calculations. |
|      (for HF NCORE is supported but not extensively tested yet)             |
|                                                                             |
 ----------------------------------------------------------------------------- 

 POTCAR:    PAW_PBE Ir 06Sep2000                  
   SHA256 =  7c6af8d4d487b237782eb51e6f62977b27a1da78c3c96acd1cebefd6c308f120 Ir
   COPYR  = (c) Copyright 06Sep2000 Georg Kresse                                
   COPYR  = This file is part of the software VASP. Any use, copying, and all ot
   COPYR  = If you do not have a valid VASP license, you may not use, copy or di
   VRHFIN =Ir: s1d8                                                             
   LEXCH  = PE                                                                  
   EATOM  =   560.1833 eV,   41.1723 Ry                                         
                                                                                
   TITEL  = PAW_PBE Ir 06Sep2000                                                
   LULTRA =        F    use ultrasoft PP ?                                      
   IUNSCR =        1    unscreen: 0-lin 1-nonlin 2-no                           
   RPACOR =    2.250    partial core radius                                     
   POMASS =  192.220; ZVAL   =    9.000    mass and valenz                      
   RCORE  =    2.600    outmost cutoff radius                                   
   RWIGS  =    2.690; RWIGS  =    1.423    wigner-seitz radius (au A)           
   ENMAX  =  210.864; ENMIN  =  158.148 eV                                      
   RCLOC  =    1.857    cutoff for local pot                                    
   LCOR   =        T    correct aug charges                                     
   LPAW   =        T    paw PP                                                  
   EAUG   =  318.962                                                            
   DEXC   =    0.000                                                            
   RMAX   =    2.667    core radius for proj-oper                               
   RAUG   =    1.300    factor for augmentation sphere                          
   RDEP   =    2.748    radius for radial grids                                 
   RDEPT  =    2.300    core radius for aug-charge                              
                                                                                
   Atomic configuration                                                         
   16 entries                                                                   
     n  l   j            E        occ.                                          
     1  0  0.50    -76100.0449   2.0000                                         
     2  0  0.50    -13308.1683   2.0000                                         
     2  1  1.50    -11558.0021   6.0000                                         
     3  0  0.50     -3110.7274   2.0000                                         
     3  1  1.50     -2599.2109   6.0000                                         
     3  2  2.50     -2037.1515  10.0000                                         
     4  0  0.50      -661.6001   2.0000                                         
     4  1  1.50      -493.8981   6.0000                                         
     4  2  2.50      -288.1909  10.0000                                         
     4  3  3.50       -59.5718  14.0000                                         
     5  0  0.50       -95.3879   2.0000                                         
     5  1  1.50       -52.2747   6.0000                                         
     5  2  2.50        -5.4180   8.0000                                         
     6  0  0.50        -5.5479   1.0000                                         
     6  1  1.50        -6.8029   0.0000                                         
     5  3  2.50        -1.3606   0.0000                                         
   Description                                                                  
     l       E           TYP  RCUT    TYP  RCUT                                 
     2     -5.4179967     23  2.600                                             
     2     -6.7785793     23  2.600                                             
     0     -5.5478636     23  2.600                                             
     0      2.2542272     23  2.600                                             
     1     -2.7211652     23  2.600                                             
     1     20.4087390     23  2.600                                             
  local pseudopotential read in
  partial core-charges read in
  partial kinetic energy density read in
  atomic valenz-charges read in
  non local Contribution for L=           2  read in
    real space projection operators read in
  non local Contribution for L=           2  read in
    real space projection operators read in
  non local Contribution for L=           0  read in
    real space projection operators read in
  non local Contribution for L=           0  read in
    real space projection operators read in
  non local Contribution for L=           1  read in
    real space projection operators read in
  non local Contribution for L=           1  read in
    real space projection operators read in
    PAW grid and wavefunctions read in
 
   number of l-projection  operators is LMAX  =           6
   number of lm-projection operators is LMMAX =          18
 
 POTCAR:    PAW_PBE Pt 04Feb2005                  
   SHA256 =  3ed90460adef76debcff1cfb73ee1349b515b1a3db03439735b44de3a8db7dc8 Pt
   COPYR  = (c) Copyright 04Feb2005 Georg Kresse                                
   COPYR  = This file is part of the software VASP. Any use, copying, and all ot
   COPYR  = If you do not have a valid VASP license, you may not use, copy or di
   VRHFIN =Pt: s1d9                                                             
   LEXCH  = PE                                                                  
   EATOM  =   729.1176 eV,   53.5886 Ry                                         
                                                                                
   TITEL  = PAW_PBE Pt 04Feb2005                                                
   LULTRA =        F    use ultrasoft PP ?                                      
   IUNSCR =        1    unscreen: 0-lin 1-nonlin 2-no                           
   RPACOR =    2.330    partial core radius                                     
   POMASS =  195.080; ZVAL   =   10.000    mass and valenz                      
   RCORE  =    2.600    outmost cutoff radius                                   
   RWIGS  =    2.750; RWIGS  =    1.455    wigner-seitz radius (au A)           
   ENMAX  =  230.283; ENMIN  =  172.712 eV                                      
   ICORE  =        3    local potential                                         
   LCOR   =        T    correct aug charges                                     
   LPAW   =        T    paw PP                                                  
   EAUG   =  358.966                                                            
   DEXC   =    0.000                                                            
   RMAX   =    2.658    core radius for proj-oper                               
   RAUG   =    1.300    factor for augmentation sphere                          
   RDEP   =    2.761    radius for radial grids                                 
   RDEPT  =    2.203    core radius for aug-charge                              
                                                                                
   Atomic configuration                                                         
   16 entries                                                                   
     n  l   j            E        occ.                                          
     1  0  0.50    -78401.1885   2.0000                                         
     2  0  0.50    -13770.7750   2.0000                                         
     2  1  1.50    -11931.0468   6.0000                                         
     3  0  0.50     -3234.7234   2.0000                                         
     3  1  1.50     -2699.2216   6.0000                                         
     3  2  2.50     -2119.5714  10.0000                                         
     4  0  0.50      -695.1528   2.0000                                         
     4  1  1.50      -519.6034   6.0000                                         
     4  2  2.50      -306.6786  10.0000                                         
     4  3  3.50       -70.1041  14.0000                                         
     5  0  0.50      -101.7747   2.0000                                         
     5  1  1.50       -55.9873   6.0000                                         
     5  2  2.50        -6.1423   9.0000                                         
     6  0  0.50        -5.6573   1.0000                                         
     6  1  1.50        -6.8029   0.0000                                         
     5  3  2.50        -1.3606   0.0000                                         
   Description                                                                  
     l       E           TYP  RCUT    TYP  RCUT                                 
     2     -6.1423404     23  2.500                                             
     2     -7.5029230     23  2.500                                             
     0     -5.6573207     23  2.500                                             
     0      0.7416693     23  2.500                                             
     1     -2.7211652     23  2.600                                             
     1     20.4087390     23  2.600                                             
     3     -1.3605826     23  2.500                                             
  local pseudopotential read in
  partial core-charges read in
  partial kinetic energy density read in
  atomic valenz-charges read in
  non local Contribution for L=           2  read in
    real space projection operators read in
  non local Contribution for L=           2  read in
    real space projection operators read in
  non local Contribution for L=           0  read in
    real space projection operators read in
  non local Contribution for L=           0  read in
    real space projection operators read in
  non local Contribution for L=           1  read in
    real space projection operators read in
  non local Contribution for L=           1  read in
    real space projection operators read in
    PAW grid and wavefunctions read in
 
   number of l-projection  operators is LMAX  =           6
   number of lm-projection operators is LMMAX =          18
 
 POTCAR:    PAW_PBE Au 04Oct2007                  
   SHA256 =  d0044ae04e2bdce24051b198fc5c053d722a5bc6fe3c3b100514a13fc5d2db88 Au
   COPYR  = (c) Copyright 04Oct2007 Georg Kresse                                
   COPYR  = This file is part of the software VASP. Any use, copying, and all ot
   COPYR  = If you do not have a valid VASP license, you may not use, copy or di
   VRHFIN =Au: s1d10                                                            
   LEXCH  = PE                                                                  
   EATOM  =   926.0867 eV,   68.0654 Ry                                         
                                                                                
   TITEL  = PAW_PBE Au 04Oct2007                                                
   LULTRA =        F    use ultrasoft PP ?                                      
   IUNSCR =        1    unscreen: 0-lin 1-nonlin 2-no                           
   RPACOR =    2.330    partial core radius                                     
   POMASS =  196.966; ZVAL   =   11.000    mass and valenz                      
   RCORE  =    2.500    outmost cutoff radius                                   
   RWIGS  =    2.840; RWIGS  =    1.503    wigner-seitz radius (au A)           
   ENMAX  =  229.943; ENMIN  =  172.457 eV                                      
   ICORE  =        3    local potential                                         
   LCOR   =        T    correct aug charges                                     
   LPAW   =        T    paw PP                                                  
   EAUG   =  356.670                                                            
   DEXC   =    0.000                                                            
   RMAX   =    2.562    core radius for proj-oper                               
   RAUG   =    1.300    factor for augmentation sphere                          
   RDEP   =    2.598    radius for radial grids                                 
   RDEPT  =    2.193    core radius for aug-charge                              
                                                                                
   Atomic configuration                                                         
   16 entries                                                                   
     n  l   j            E        occ.                                          
     1  0  0.50    -80748.5001   2.0000                                         
     2  0  0.50    -14244.7466   2.0000                                         
     2  1  1.50    -12310.9591   6.0000                                         
     3  0  0.50     -3362.1768   2.0000                                         
     3  1  1.50     -2801.5463   6.0000                                         
     3  2  2.50     -2203.8206  10.0000                                         
     4  0  0.50      -729.8168   2.0000                                         
     4  1  1.50      -546.0527   6.0000                                         
     4  2  2.50      -325.7302  10.0000                                         
     4  3  3.50       -81.1472  14.0000                                         
     5  0  0.50      -108.3201   2.0000                                         
     5  1  1.50       -59.7479   6.0000                                         
     5  2  2.50        -6.8783  10.0000                                         
     6  0  0.50        -5.7602   1.0000                                         
     6  1  1.50        -6.8029   0.0000                                         
     5  3  2.50        -1.3606   0.0000                                         
   Description                                                                  
     l       E           TYP  RCUT    TYP  RCUT                                 
     2     -6.8782861     23  2.500                                             
     2     -8.2388687     23  2.500                                             
     0     -5.7601759     23  2.500                                             
     0     -0.8493231     23  2.500                                             
     1     -2.7211652     23  2.500                                             
     1     27.2116520     23  2.500                                             
     3     -1.3605826     23  2.500                                             
  local pseudopotential read in
  partial core-charges read in
  partial kinetic energy density read in
  atomic valenz-charges read in
  non local Contribution for L=           2  read in
    real space projection operators read in
  non local Contribution for L=           2  read in
    real space projection operators read in
  non local Contribution for L=           0  read in
    real space projection operators read in
  non local Contribution for L=           0  read in
    real space projection operators read in
  non local Contribution for L=           1  read in
    real space projection operators read in
  non local Contribution for L=           1  read in
    real space projection operators read in
    PAW grid and wavefunctions read in
 
   number of l-projection  operators is LMAX  =           6
   number of lm-projection operators is LMMAX =          18
 
  PAW_PBE Ir 06Sep2000                  :
 energy of atom  1       EATOM= -560.1833
 kinetic energy error for atom=    0.0056 (will be added to EATOM!!)
  PAW_PBE Pt 04Feb2005                  :
 energy of atom  2       EATOM= -729.1176
 kinetic energy error for atom=    0.0144 (will be added to EATOM!!)
  PAW_PBE Au 04Oct2007                  :
 energy of atom  3       EATOM= -926.0867
 kinetic energy error for atom=    0.0152 (will be added to EATOM!!)
 
 
 POSCAR: Ir Pt Au                                
  positions in cartesian coordinates
  No initial velocities read in
 exchange correlation table for  LEXCH =        8
   RHO(1)=    0.500       N(1)  =     2000
   RHO(2)=  100.500       N(2)  =     4000
 


--------------------------------------------------------------------------------------------------------


 ion  position               nearest neighbor table
   1  0.000  0.000  0.390-   3 2.78   3 2.78   4 2.78   4 2.78   2 2.78   2 2.78   5 2.82   6 2.82
                             7 2.82
   2  0.500  0.000  0.390-   4 2.78   3 2.78   4 2.78   3 2.78   1 2.78   1 2.78   6 2.82   5 2.82
                             8 2.82
   3  0.000  0.500  0.390-   1 2.78   1 2.78   2 2.78   2 2.78   4 2.78   4 2.78   7 2.82   5 2.82
                             8 2.82
   4  0.500  0.500  0.390-   2 2.78   1 2.78   2 2.78   1 2.78   3 2.78   3 2.78   8 2.82   7 2.82
                             6 2.82
   5  0.167  0.167  0.465-   7 2.78   7 2.78   8 2.78   8 2.78   6 2.78   6 2.78   9 2.80  11 2.80
                            16 2.80   1 2.82   3 2.82   2 2.82
   6  0.667  0.167  0.465-   8 2.78   7 2.78   8 2.78   7 2.78   5 2.78   5 2.78  10 2.80  16 2.80
                             9 2.80   2 2.82   4 2.82   1 2.82
   7  0.167  0.667  0.465-   5 2.78   5 2.78   6 2.78   6 2.78   8 2.78   8 2.78  10 2.80  16 2.80
                            11 2.80   3 2.82   4 2.82   1 2.82
   8  0.667  0.667  0.465-   6 2.78   5 2.78   6 2.78   5 2.78   7 2.78   7 2.78   9 2.80  11 2.80
                            10 2.80   4 2.82   2 2.82   3 2.82
   9  0.833  0.333  0.539-  10 2.78  10 2.78  11 2.78  11 2.78  16 2.78  16 2.78   5 2.80   8 2.80
                             6 2.80  14 2.83  12 2.83  15 2.83
  10  0.833  0.833  0.539-   9 2.78   9 2.78  16 2.78  16 2.78  11 2.78  11 2.78   6 2.80   7 2.80
                             8 2.80  12 2.83  14 2.83  13 2.83
  11  0.333  0.833  0.539-  16 2.78   9 2.78  16 2.78   9 2.78  10 2.78  10 2.78   5 2.80   8 2.80
                             7 2.80  13 2.83  15 2.83  12 2.83
  12  0.000  0.000  0.615-  14 2.78  14 2.78  15 2.78  15 2.78  13 2.78  13 2.78  10 2.83   9 2.83
                            11 2.83
  13  0.500  0.000  0.615-  15 2.78  14 2.78  15 2.78  14 2.78  12 2.78  12 2.78  11 2.83  16 2.83
                            10 2.83
  14  0.000  0.500  0.615-  12 2.78  12 2.78  13 2.78  13 2.78  15 2.78  15 2.78   9 2.83  10 2.83
                            16 2.83
  15  0.500  0.500  0.615-  13 2.78  12 2.78  13 2.78  12 2.78  14 2.78  14 2.78  16 2.83  11 2.83
                             9 2.83
  16  0.333  0.333  0.539-  11 2.78  10 2.78  11 2.78  10 2.78   9 2.78   9 2.78   6 2.80   7 2.80
                             5 2.80  15 2.83  13 2.83  14 2.83
 
  LATTYP: Found a hexagonal cell.
 ALAT       =     5.5578593001
 C/A-ratio  =     5.5429542221
  
  Lattice vectors:
  
 A1 = (   2.7789296501,  -4.8132473446,   0.0000000000)
 A2 = (  -5.5578593001,   0.0000000000,   0.0000000000)
 A3 = (   0.0000000000,   0.0000000000, -30.8069596737)


Analysis of symmetry for initial positions (statically):
=====================================================================
 Subroutine PRICEL returns:
 Original cell was already a primitive cell.
 

 Routine SETGRP: Setting up the symmetry group for a 
 hexagonal supercell.


 Subroutine GETGRP returns: Found  6 space group operations
 (whereof  6 operations were pure point group operations)
 out of a pool of 24 trial point group operations.


The static configuration has the point symmetry C_3v.


Analysis of symmetry for dynamics (positions and initial velocities):
=====================================================================
 Subroutine PRICEL returns:
 Original cell was already a primitive cell.
 

 Routine SETGRP: Setting up the symmetry group for a 
 hexagonal supercell.


 Subroutine GETGRP returns: Found  6 space group operations
 (whereof  6 operations were pure point group operations)
 out of a pool of 24 trial point group operations.


The dynamic configuration has the point symmetry C_3v.


Analysis of constrained symmetry for selective dynamics:
=====================================================================
 Subroutine PRICEL returns:
 Original cell was already a primitive cell.
 

 Routine SETGRP: Setting up the symmetry group for a 
 hexagonal supercell.


 Subroutine GETGRP returns: Found  6 space group operations
 (whereof  6 operations were pure point group operations)
 out of a pool of 24 trial point group operations.


The constrained configuration has the point symmetry C_3v.


 Subroutine INISYM returns: Found  6 space group operations
 (whereof  6 operations are pure point group operations),
 and found     1 'primitive' translations

 
 
 KPOINTS: KPOINTS created by Atomic Simulation Env

Automatic generation of k-mesh.
Space group operators:
 irot       det(A)        alpha          n_x          n_y          n_z        tau_x        tau_y        tau_z
    1     1.000000     0.000001     1.000000     0.000000     0.000000     0.000000     0.000000     0.000000
    2     1.000000   120.000000     0.000000     0.000000     1.000000     0.000000     0.000000     0.000000
    3     1.000000   120.000000     0.000000     0.000000    -1.000000     0.000000     0.000000     0.000000
    4    -1.000000   180.000000     0.500000    -0.866025     0.000000     0.000000     0.000000     0.000000
    5    -1.000000   180.000000     1.000000     0.000000     0.000000     0.000000     0.000000     0.000000
    6    -1.000000   180.000000    -0.500000    -0.866025     0.000000     0.000000     0.000000     0.000000
 
 Subroutine IBZKPT returns following result:
 ===========================================
 
 Found     20 irreducible k-points:
 
 Following reciprocal coordinates:
            Coordinates               Weight
  0.062500  0.062500  0.000000     48.000000
  0.187500  0.062500  0.000000     96.000000
  0.312500  0.062500  0.000000     96.000000
  0.437500  0.062500  0.000000     96.000000
 -0.437500  0.062500  0.000000     96.000000
 -0.312500  0.062500  0.000000     96.000000
 -0.187500  0.062500  0.000000     96.000000
 -0.062500  0.062500  0.000000     48.000000
  0.187500  0.187500  0.000000     48.000000
  0.312500  0.187500  0.000000     96.000000
  0.437500  0.187500  0.000000     96.000000
 -0.437500  0.187500  0.000000     96.000000
 -0.312500  0.187500  0.000000     96.000000
 -0.187500  0.187500  0.000000     48.000000
  0.312500  0.312500  0.000000     48.000000
  0.437500  0.312500  0.000000     96.000000
 -0.437500  0.312500  0.000000     96.000000
 -0.312500  0.312500  0.000000     48.000000
  0.437500  0.437500  0.000000     48.000000
 -0.437500  0.437500  0.000000     48.000000
 
 Following cartesian coordinates:
            Coordinates               Weight
  0.011245  0.006492  0.000000     48.000000
  0.033736 -0.006492  0.000000     96.000000
  0.056227 -0.019477  0.000000     96.000000
  0.078717 -0.032462  0.000000     96.000000
 -0.078717  0.058432  0.000000     96.000000
 -0.056227  0.045447  0.000000     96.000000
 -0.033736  0.032462  0.000000     96.000000
 -0.011245  0.019477  0.000000     48.000000
  0.033736  0.019477  0.000000     48.000000
  0.056227  0.006492  0.000000     96.000000
  0.078717 -0.006492  0.000000     96.000000
 -0.078717  0.084402  0.000000     96.000000
 -0.056227  0.071417  0.000000     96.000000
 -0.033736  0.058432  0.000000     48.000000
  0.056227  0.032462  0.000000     48.000000
  0.078717  0.019477  0.000000     96.000000
 -0.078717  0.110372  0.000000     96.000000
 -0.056227  0.097387  0.000000     48.000000
  0.078717  0.045447  0.000000     48.000000
 -0.078717  0.136342  0.000000     48.000000
 


--------------------------------------------------------------------------------------------------------




 Dimension of arrays:
   k-points           NKPTS =     20   k-points in BZ     NKDIM =     20   number of bands    NBANDS=     96
   number of dos      NEDOS =    301   number of ions     NIONS =     16
   non local maximal  LDIM  =      6   non local SUM 2l+1 LMDIM =     18
   total plane-waves  NPLWV = 112896
   max r-space proj   IRMAX =      1   max aug-charges    IRDMAX=  10104
   dimension x,y,z NGX =    28 NGY =   28 NGZ =  144
   dimension x,y,z NGXF=    56 NGYF=   56 NGZF=  288
   support grid    NGXF=    56 NGYF=   56 NGZF=  288
   ions per type =               1  14   1
   NGX,Y,Z   is equivalent  to a cutoff of   8.38,  8.38,  7.77 a.u.
   NGXF,Y,Z  is equivalent  to a cutoff of  16.75, 16.75, 15.54 a.u.

 SYSTEM =  unknown system                          
 POSCAR =  Ir Pt Au                                

 Startparameter for this run:
   NWRITE =      2    write-flag & timer
   PREC   = normal    normal or accurate (medium, high low for compatibility)
   ISTART =      0    job   : 0-new  1-cont  2-samecut
   ICHARG =      2    charge: 1-file 2-atom 10-const
   ISPIN  =      1    spin polarized calculation?
   LNONCOLLINEAR =      F non collinear calculations
   LSORBIT =      F    spin-orbit coupling
   INIWAV =      1    electr: 0-lowe 1-rand  2-diag
   LASPH  =      F    aspherical Exc in radial PAW
   METAGGA=      F    non-selfconsistent MetaGGA calc.

 Electronic Relaxation 1
   ENCUT  =  350.0 eV  25.72 Ry    5.07 a.u.   8.48  8.48 46.99*2*pi/ulx,y,z
   ENINI  =  350.0     initial cutoff
   ENAUG  =  359.0 eV  augmentation charge cutoff
   NELM   =     60;   NELMIN=  2; NELMDL= -5     # of ELM steps 
   EDIFF  = 0.1E-04   stopping-criterion for ELM
   LREAL  =      F    real-space projection
   NLSPLINE    = F    spline interpolate recip. space projectors
   LCOMPAT=      F    compatible to vasp.4.4
   GGA_COMPAT  = T    GGA compatible to vasp.4.4-vasp.4.6
   LMAXPAW     = -100 max onsite density
   LMAXMIX     =    2 max onsite mixed and CHGCAR
   VOSKOWN=      0    Vosko Wilk Nusair interpolation
   ROPT   =    0.00000   0.00000   0.00000
 Ionic relaxation
   EDIFFG = -.5E-01   stopping-criterion for IOM
   NSW    =      0    number of steps for IOM
   NBLOCK =      1;   KBLOCK =      1    inner block; outer block 
   IBRION =     -1    ionic relax: 0-MD 1-quasi-New 2-CG
   NFREE  =      1    steps in history (QN), initial steepest desc. (CG)
   ISIF   =      2    stress and relaxation
   IWAVPR =     10    prediction:  0-non 1-charg 2-wave 3-comb
   ISYM   =      2    0-nonsym 1-usesym 2-fastsym
   LCORR  =      T    Harris-Foulkes like correction to forces

   POTIM  = 0.5000    time-step for ionic-motion
   TEIN   =    0.0    initial temperature
   TEBEG  =    0.0;   TEEND  =   0.0 temperature during run
   SMASS  =  -3.00    Nose mass-parameter (am)
   estimated Nose-frequenzy (Omega)   =  0.10E-29 period in steps =****** mass=  -0.706E-27a.u.
   SCALEE = 1.0000    scale energy and forces
   NPACO  =    256;   APACO  = 16.0  distance and # of slots for P.C.
   PSTRESS=    0.0 pullay stress

  Mass of Ions in am
   POMASS = 192.22195.08196.97
  Ionic Valenz
   ZVAL   =   9.00 10.00 11.00
  Atomic Wigner-Seitz radii
   RWIGS  =  -1.00 -1.00 -1.00
  virtual crystal weights 
   VCA    =   1.00  1.00  1.00
   NELECT =     160.0000    total number of electrons
   NUPDOWN=      -1.0000    fix difference up-down

 DOS related values:
   EMIN   =  10.00;   EMAX   =-10.00  energy-range for DOS
   EFERMI =   0.00
   ISMEAR =     1;   SIGMA  =   0.20  broadening in eV -4-tet -1-fermi 0-gaus

 Electronic relaxation 2 (details)
   IALGO  =     38    algorithm
   LDIAG  =      T    sub-space diagonalisation (order eigenvalues)
   LSUBROT=      F    optimize rotation matrix (better conditioning)
   TURBO    =      0    0=normal 1=particle mesh
   IRESTART =      0    0=no restart 2=restart with 2 vectors
   NREBOOT  =      0    no. of reboots
   NMIN     =      0    reboot dimension
   EREF     =   0.00    reference energy to select bands
   IMIX   =      4    mixing-type and parameters
     AMIX     =   0.40;   BMIX     =  1.00
     AMIX_MAG =   1.60;   BMIX_MAG =  1.00
     AMIN     =   0.10
     WC   =   100.;   INIMIX=   1;  MIXPRE=   1;  MAXMIX= -45

 Intra band minimization:
   WEIMIN = 0.0000     energy-eigenvalue tresh-hold
   EBREAK =  0.26E-07  absolut break condition
   DEPER  =   0.30     relativ break condition  

   TIME   =   0.40     timestep for ELM

  volume/ion in A,a.u.               =      51.51       347.59
  Fermi-wavevector in a.u.,A,eV,Ry     =   0.947945  1.791357 12.226201  0.898600
  Thomas-Fermi vector in A             =   2.076087
 
 Write flags
   LWAVE        =      F    write WAVECAR
   LDOWNSAMPLE  =      F    k-point downsampling of WAVECAR
   LCHARG       =      F    write CHGCAR
   LVTOT        =      F    write LOCPOT, total local potential
   LVHAR        =      F    write LOCPOT, Hartree potential only
   LELF         =      F    write electronic localiz. function (ELF)
   LORBIT       =      0    0 simple, 1 ext, 2 COOP (PROOUT), +10 PAW based schemes


 Dipole corrections
   LMONO  =      F    monopole corrections only (constant potential shift)
   LDIPOL =      F    correct potential (dipole corrections)
   IDIPOL =      3    1-x, 2-y, 3-z, 4-all directions 
   EPSILON=  1.0000000 bulk dielectric constant

 Exchange correlation treatment:
   GGA     =    PE    GGA type
   LEXCH   =     8    internal setting for exchange type
   VOSKOWN=      0    Vosko Wilk Nusair interpolation
   LHFCALC =     F    Hartree Fock is set to
   LHFONE  =     F    Hartree Fock one center treatment
   AEXX    =    0.0000 exact exchange contribution

 Linear response parameters
   LEPSILON=     F    determine dielectric tensor
   LRPA    =     F    only Hartree local field effects (RPA)
   LNABLA  =     F    use nabla operator in PAW spheres
   LVEL    =     F    velocity operator in full k-point grid
   LINTERFAST=   F  fast interpolation
   KINTER  =     0    interpolate to denser k-point grid
   CSHIFT  =0.1000    complex shift for real part using Kramers Kronig
   OMEGAMAX=  -1.0    maximum frequency
   DEG_THRESHOLD= 0.2000000E-02 threshold for treating states as degnerate
   RTIME   =   -0.100 relaxation time in fs
  (WPLASMAI=    0.000 imaginary part of plasma frequency in eV, 0.658/RTIME)
   DFIELD  = 0.0000000 0.0000000 0.0000000 field for delta impulse in time
 
 Orbital magnetization related:
   ORBITALMAG=     F  switch on orbital magnetization
   LCHIMAG   =     F  perturbation theory with respect to B field
   DQ        =  0.001000  dq finite difference perturbation B field
   LLRAUG    =     F  two centre corrections for induced B field



--------------------------------------------------------------------------------------------------------


 Static calculation
 charge density and potential will be updated during run
 non-spin polarized calculation
 Variant of blocked Davidson
 Davidson routine will perform the subspace rotation
 perform sub-space diagonalisation
    after iterative eigenvector-optimisation
 modified Broyden-mixing scheme, WC =      100.0
 initial mixing is a Kerker type mixing with AMIX =  0.4000 and BMIX =      1.0000
 Hartree-type preconditioning will be used
 using additional bands           16
 reciprocal scheme for non local part
 use partial core corrections
 calculate Harris-corrections to forces 
   (improved forces if not selfconsistent)
 use gradient corrections 
 use of overlap-Matrix (Vanderbilt PP)
 Methfessel and Paxton  Order N= 1 SIGMA  =   0.20


--------------------------------------------------------------------------------------------------------


  energy-cutoff  :      350.00
  volume of cell :      824.13
      direct lattice vectors                 reciprocal lattice vectors
     5.557859300  0.000000000  0.000000000     0.179925390 -0.103879972  0.000000000
     2.778929650  4.813247345  0.000000000     0.000000000  0.207759944  0.000000000
     0.000000000  0.000000000 30.806959674     0.000000000  0.000000000  0.032460198

  length of vectors
     5.557859300  5.557859300 30.806959674     0.207759944  0.207759944  0.032460198


 
 k-points in units of 2pi/SCALE and weight: KPOINTS created by Atomic Simulation Env
   0.01124534  0.00649250  0.00000000       0.031
   0.03373601 -0.00649250  0.00000000       0.062
   0.05622668 -0.01947749  0.00000000       0.062
   0.07871736 -0.03246249  0.00000000       0.062
  -0.07871736  0.05843248  0.00000000       0.062
  -0.05622668  0.04544749  0.00000000       0.062
  -0.03373601  0.03246249  0.00000000       0.062
  -0.01124534  0.01947749  0.00000000       0.031
   0.03373601  0.01947749  0.00000000       0.031
   0.05622668  0.00649250  0.00000000       0.062
   0.07871736 -0.00649250  0.00000000       0.062
  -0.07871736  0.08440248  0.00000000       0.062
  -0.05622668  0.07141748  0.00000000       0.062
  -0.03373601  0.05843248  0.00000000       0.031
   0.05622668  0.03246249  0.00000000       0.031
   0.07871736  0.01947749  0.00000000       0.062
  -0.07871736  0.11037247  0.00000000       0.062
  -0.05622668  0.09738747  0.00000000       0.031
   0.07871736  0.04544749  0.00000000       0.031
  -0.07871736  0.13634246  0.00000000       0.031
 
 k-points in reciprocal lattice and weights: KPOINTS created by Atomic Simulation Env
   0.06250000  0.06250000  0.00000000       0.031
   0.18750000  0.06250000  0.00000000       0.062
   0.31250000  0.06250000  0.00000000       0.062
   0.43750000  0.06250000  0.00000000       0.062
  -0.43750000  0.06250000  0.00000000       0.062
  -0.31250000  0.06250000  0.00000000       0.062
  -0.18750000  0.06250000  0.00000000       0.062
  -0.06250000  0.06250000  0.00000000       0.031
   0.18750000  0.18750000  0.00000000       0.031
   0.31250000  0.18750000  0.00000000       0.062
   0.43750000  0.18750000  0.00000000       0.062
  -0.43750000  0.18750000  0.00000000       0.062
  -0.31250000  0.18750000  0.00000000       0.062
  -0.18750000  0.18750000  0.00000000       0.031
   0.31250000  0.31250000  0.00000000       0.031
   0.43750000  0.31250000  0.00000000       0.062
  -0.43750000  0.31250000  0.00000000       0.062
  -0.31250000  0.31250000  0.00000000       0.031
   0.43750000  0.43750000  0.00000000       0.031
  -0.43750000  0.43750000  0.00000000       0.031
 
 position of ions in fractional coordinates (direct lattice) 
   0.00000000  0.00000000  0.38952237
   0.50000000  0.00000000  0.38952237
   0.00000000  0.50000000  0.38952237
   0.50000000  0.50000000  0.38952237
   0.16666667  0.16666667  0.46468540
   0.66666667  0.16666667  0.46468540
   0.16666667  0.66666667  0.46468540
   0.66666667  0.66666667  0.46468540
   0.83333333  0.33333333  0.53920296
   0.83333333  0.83333333  0.53920296
   0.33333333  0.83333333  0.53920296
   0.00000000  0.00000000  0.61486043
   0.50000000  0.00000000  0.61486043
   0.00000000  0.50000000  0.61486043
   0.50000000  0.50000000  0.61486043
   0.33333333  0.33333333  0.53920296
 
 position of ions in cartesian coordinates  (Angst):
   0.00000000  0.00000000 12.00000000
   2.77892965  0.00000000 12.00000000
   1.38946483  2.40662367 12.00000000
   4.16839448  2.40662367 12.00000000
   1.38946483  0.80220789 14.31554441
   4.16839448  0.80220789 14.31554441
   2.77892965  3.20883156 14.31554441
   5.55785930  3.20883156 14.31554441
   5.55785930  1.60441578 16.61120399
   6.94732413  4.01103945 16.61120399
   4.16839448  4.01103945 16.61120399
   0.00000000  0.00000000 18.94198048
   2.77892965  0.00000000 18.94198048
   1.38946483  2.40662367 18.94198048
   4.16839448  2.40662367 18.94198048
   2.77892965  1.60441578 16.61120399
 


--------------------------------------------------------------------------------------------------------


 k-point  1 :   0.0625 0.0625 0.0000  plane waves:   12325
 k-point  2 :   0.1875 0.0625 0.0000  plane waves:   12294
 k-point  3 :   0.3125 0.0625 0.0000  plane waves:   12263
 k-point  4 :   0.4375 0.0625 0.0000  plane waves:   12221
 k-point  5 :  -0.4375 0.0625 0.0000  plane waves:   12211
 k-point  6 :  -0.3125 0.0625 0.0000  plane waves:   12242
 k-point  7 :  -0.1875 0.0625 0.0000  plane waves:   12280
 k-point  8 :  -0.0625 0.0625 0.0000  plane waves:   12329
 k-point  9 :   0.1875 0.1875 0.0000  plane waves:   12277
 k-point 10 :   0.3125 0.1875 0.0000  plane waves:   12288
 k-point 11 :   0.4375 0.1875 0.0000  plane waves:   12234
 k-point 12 :  -0.4375 0.1875 0.0000  plane waves:   12216
 k-point 13 :  -0.3125 0.1875 0.0000  plane waves:   12215
 k-point 14 :  -0.1875 0.1875 0.0000  plane waves:   12289
 k-point 15 :   0.3125 0.3125 0.0000  plane waves:   12275
 k-point 16 :   0.4375 0.3125 0.0000  plane waves:   12239
 k-point 17 :  -0.4375 0.3125 0.0000  plane waves:   12235
 k-point 18 :  -0.3125 0.3125 0.0000  plane waves:   12232
 k-point 19 :   0.4375 0.4375 0.0000  plane waves:   12200
 k-point 20 :  -0.4375 0.4375 0.0000  plane waves:   12214

 maximum and minimum number of plane-waves per node :     12329    12200

 maximum number of plane-waves:     12329
 maximum index in each direction: 
   IXMAX=    8   IYMAX=    8   IZMAX=   46
   IXMIN=   -8   IYMIN=   -8   IZMIN=  -46


 serial   3D FFT for wavefunctions
 parallel 3D FFT for charge:
    minimum data exchange during FFTs selected (reduces bandwidth)


 total amount of memory used by VASP MPI-rank0   165803. kBytes
=======================================================================

   base      :      30000. kBytes
   nonl-proj :     109741. kBytes
   fftplans  :       2015. kBytes
   grid      :       7641. kBytes
   one-center:        248. kBytes
   wavefun   :      16158. kBytes
 
     INWAV:  cpu time    0.0000: real time    0.0000
 Broyden mixing: mesh for mixing (old mesh)
   NGX = 17   NGY = 17   NGZ = 93
  (NGX  = 56   NGY  = 56   NGZ  =288)
  gives a total of  26877 points

 initial charge density was supplied:
 charge density of overlapping atoms calculated
 number of electron     160.0000000 magnetization 
 keeping initial charge density in first step


--------------------------------------------------------------------------------------------------------


 Maximum index for augmentation-charges          824 (set IRDMAX)


--------------------------------------------------------------------------------------------------------


 First call to EWALD:  gamma=   0.189
 Maximum number of real-space cells 5x 5x 1
 Maximum number of reciprocal cells 2x 2x 8

    FEWALD:  cpu time    0.0015: real time    0.0015


--------------------------------------- Iteration      1(   1)  ---------------------------------------


    POTLOK:  cpu time    0.0189: real time    0.0249
    SETDIJ:  cpu time    0.0025: real time    0.0025
     EDDAV:  cpu time    3.4811: real time    3.4820
       DOS:  cpu time    0.0013: real time    0.0013
    --------------------------------------------
      LOOP:  cpu time    3.5039: real time    3.5106

 eigenvalue-minimisations  :  3840
 total energy-change (2. order) : 0.9751426E+03  (-0.5549374E+04)
 number of electron     160.0000000 magnetization 
 augmentation part      160.0000000 magnetization 

 Free energy of the ion-electron system (eV)
  ---------------------------------------------------
  alpha Z        PSCENC =       303.52543553
  Ewald energy   TEWEN  =     98869.80740212
  -Hartree energ DENC   =   -110941.70889373
  -exchange      EXHF   =         0.00000000
  -V(xc)+E(xc)   XCENC  =        46.22674258
  PAW double counting   =     11171.21661038   -10711.84633960
  entropy T*S    EENTRO =        -0.01036116
  eigenvalues    EBANDS =       544.23778218
  atomic energy  EATOM  =     11693.69420960
  Solvation  Ediel_sol  =         0.00000000
  ---------------------------------------------------
  free energy    TOTEN  =       975.14258790 eV

  energy without entropy =      975.15294906  energy(sigma->0) =      975.14604162


--------------------------------------------------------------------------------------------------------




--------------------------------------- Iteration      1(   2)  ---------------------------------------


     EDDAV:  cpu time    4.9564: real time    4.9627
       DOS:  cpu time    0.0012: real time    0.0012
    --------------------------------------------
      LOOP:  cpu time    4.9577: real time    4.9639

 eigenvalue-minimisations  :  5592
 total energy-change (2. order) :-0.1014046E+04  (-0.9831366E+03)
 number of electron     160.0000000 magnetization 
 augmentation part      160.0000000 magnetization 

 Free energy of the ion-electron system (eV)
  ---------------------------------------------------
  alpha Z        PSCENC =       303.52543553
  Ewald energy   TEWEN  =     98869.80740212
  -Hartree energ DENC   =   -110941.70889373
  -exchange      EXHF   =         0.00000000
  -V(xc)+E(xc)   XCENC  =        46.22674258
  PAW double counting   =     11171.21661038   -10711.84633960
  entropy T*S    EENTRO =        -0.00376305
  eigenvalues    EBANDS =      -469.81479609
  atomic energy  EATOM  =     11693.69420960
  Solvation  Ediel_sol  =         0.00000000
  ---------------------------------------------------
  free energy    TOTEN  =       -38.90339227 eV

  energy without entropy =      -38.89962922  energy(sigma->0) =      -38.90213792


--------------------------------------------------------------------------------------------------------




--------------------------------------- Iteration      1(   3)  ---------------------------------------


     EDDAV:  cpu time    4.3036: real time    4.3043
       DOS:  cpu time    0.0010: real time    0.0010
    --------------------------------------------
      LOOP:  cpu time    4.3046: real time    4.3053

 eigenvalue-minimisations  :  4800
 total energy-change (2. order) :-0.5781690E+02  (-0.5608091E+02)
 number of electron     160.0000000 magnetization 
 augmentation part      160.0000000 magnetization 

 Free energy of the ion-electron system (eV)
  ---------------------------------------------------
  alpha Z        PSCENC =       303.52543553
  Ewald energy   TEWEN  =     98869.80740212
  -Hartree energ DENC   =   -110941.70889373
  -exchange      EXHF   =         0.00000000
  -V(xc)+E(xc)   XCENC  =        46.22674258
  PAW double counting   =     11171.21661038   -10711.84633960
  entropy T*S    EENTRO =        -0.02830928
  eigenvalues    EBANDS =      -527.60714585
  atomic energy  EATOM  =     11693.69420960
  Solvation  Ediel_sol  =         0.00000000
  ---------------------------------------------------
  free energy    TOTEN  =       -96.72028825 eV

  energy without entropy =      -96.69197898  energy(sigma->0) =      -96.71085183


--------------------------------------------------------------------------------------------------------




--------------------------------------- Iteration      1(   4)  ---------------------------------------


     EDDAV:  cpu time    4.7859: real time    4.7875
       DOS:  cpu time    0.0010: real time    0.0010
    --------------------------------------------
      LOOP:  cpu time    4.7869: real time    4.7885

 eigenvalue-minimisations  :  5448
 total energy-change (2. order) :-0.1222024E+01  (-0.1217336E+01)
 number of electron     160.0000000 magnetization 
 augmentation part      160.0000000 magnetization 

 Free energy of the ion-electron system (eV)
  ---------------------------------------------------
  alpha Z        PSCENC =       303.52543553
  Ewald energy   TEWEN  =     98869.80740212
  -Hartree energ DENC   =   -110941.70889373
  -exchange      EXHF   =         0.00000000
  -V(xc)+E(xc)   XCENC  =        46.22674258
  PAW double counting   =     11171.21661038   -10711.84633960
  entropy T*S    EENTRO =        -0.02792815
  eigenvalues    EBANDS =      -528.82955130
  atomic energy  EATOM  =     11693.69420960
  Solvation  Ediel_sol  =         0.00000000
  ---------------------------------------------------
  free energy    TOTEN  =       -97.94231257 eV

  energy without entropy =      -97.91438442  energy(sigma->0) =      -97.93300319


--------------------------------------------------------------------------------------------------------




--------------------------------------- Iteration      1(   5)  ---------------------------------------


     EDDAV:  cpu time    5.1268: real time    5.1286
       DOS:  cpu time    0.0008: real time    0.0008
    CHARGE:  cpu time    0.1312: real time    0.1312
    MIXING:  cpu time    0.0009: real time    0.0009
    --------------------------------------------
      LOOP:  cpu time    5.2596: real time    5.2616

 eigenvalue-minimisations  :  5832
 total energy-change (2. order) :-0.3089933E-01  (-0.3089299E-01)
 number of electron     160.0000080 magnetization 
 augmentation part       46.9901304 magnetization 

 Broyden mixing:
  rms(total) = 0.41720E+01    rms(broyden)= 0.41719E+01
  rms(prec ) = 0.42036E+01
  weight for this iteration     100.00

 Free energy of the ion-electron system (eV)
  ---------------------------------------------------
  alpha Z        PSCENC =       303.52543553
  Ewald energy   TEWEN  =     98869.80740212
  -Hartree energ DENC   =   -110941.70889373
  -exchange      EXHF   =         0.00000000
  -V(xc)+E(xc)   XCENC  =        46.22674258
  PAW double counting   =     11171.21661038   -10711.84633960
  entropy T*S    EENTRO =        -0.02794891
  eigenvalues    EBANDS =      -528.86042986
  atomic energy  EATOM  =     11693.69420960
  Solvation  Ediel_sol  =         0.00000000
  ---------------------------------------------------
  free energy    TOTEN  =       -97.97321190 eV

  energy without entropy =      -97.94526298  energy(sigma->0) =      -97.96389559


--------------------------------------------------------------------------------------------------------




--------------------------------------- Iteration      1(   6)  ---------------------------------------


    POTLOK:  cpu time    0.0166: real time    0.0168
    SETDIJ:  cpu time    0.0021: real time    0.0021
     EDDAV:  cpu time    4.0851: real time    4.0855
       DOS:  cpu time    0.0010: real time    0.0010
    CHARGE:  cpu time    0.1311: real time    0.1311
    MIXING:  cpu time    0.0008: real time    0.0008
    --------------------------------------------
      LOOP:  cpu time    4.2367: real time    4.2373

 eigenvalue-minimisations  :  4632
 total energy-change (2. order) : 0.2413591E+01  (-0.3756575E+01)
 number of electron     160.0000070 magnetization 
 augmentation part       49.5340630 magnetization 

 Broyden mixing:
  rms(total) = 0.34341E+01    rms(broyden)= 0.34340E+01
  rms(prec ) = 0.37771E+01
  weight for this iteration     100.00

 eigenvalues of (default mixing * dielectric matrix)
  average eigenvalue GAMMA=   0.9667
  0.9667

 Free energy of the ion-electron system (eV)
  ---------------------------------------------------
  alpha Z        PSCENC =       303.52543553
  Ewald energy   TEWEN  =     98869.80740212
  -Hartree energ DENC   =   -110740.64292204
  -exchange      EXHF   =         0.00000000
  -V(xc)+E(xc)   XCENC  =        42.07086474
  PAW double counting   =     12324.64441159   -11888.46459298
  entropy T*S    EENTRO =         0.01516920
  eigenvalues    EBANDS =      -700.20959818
  atomic energy  EATOM  =     11693.69420960
  Solvation  Ediel_sol  =         0.00000000
  ---------------------------------------------------
  free energy    TOTEN  =       -95.55962042 eV

  energy without entropy =      -95.57478961  energy(sigma->0) =      -95.56467682


--------------------------------------------------------------------------------------------------------




--------------------------------------- Iteration      1(   7)  ---------------------------------------


    POTLOK:  cpu time    0.0172: real time    0.0182
    SETDIJ:  cpu time    0.0021: real time    0.0021
     EDDAV:  cpu time    5.0723: real time    5.0729
       DOS:  cpu time    0.0008: real time    0.0008
    CHARGE:  cpu time    0.1312: real time    0.1312
    MIXING:  cpu time    0.0006: real time    0.0006
    --------------------------------------------
      LOOP:  cpu time    5.2243: real time    5.2259

 eigenvalue-minimisations  :  5808
 total energy-change (2. order) :-0.5412249E+02  (-0.5565567E+02)
 number of electron     160.0000082 magnetization 
 augmentation part       47.6601564 magnetization 

 Broyden mixing:
  rms(total) = 0.60016E+01    rms(broyden)= 0.60015E+01
  rms(prec ) = 0.75827E+01
  weight for this iteration     100.00

 eigenvalues of (default mixing * dielectric matrix)
  average eigenvalue GAMMA=   0.8853
  1.6233  0.1474

 Free energy of the ion-electron system (eV)
  ---------------------------------------------------
  alpha Z        PSCENC =       303.52543553
  Ewald energy   TEWEN  =     98869.80740212
  -Hartree energ DENC   =   -110841.82851497
  -exchange      EXHF   =         0.00000000
  -V(xc)+E(xc)   XCENC  =        41.20375570
  PAW double counting   =     12869.06303555   -12439.49625039
  entropy T*S    EENTRO =        -0.01576449
  eigenvalues    EBANDS =      -645.63541804
  atomic energy  EATOM  =     11693.69420960
  Solvation  Ediel_sol  =         0.00000000
  ---------------------------------------------------
  free energy    TOTEN  =      -149.68210940 eV

  energy without entropy =     -149.66634491  energy(sigma->0) =     -149.67685457


--------------------------------------------------------------------------------------------------------




--------------------------------------- Iteration      1(   8)  ---------------------------------------


    POTLOK:  cpu time    0.0159: real time    0.0159
    SETDIJ:  cpu time    0.0021: real time    0.0021
     EDDAV:  cpu time    5.1896: real time    5.1901
       DOS:  cpu time    0.0010: real time    0.0010
    CHARGE:  cpu time    0.1305: real time    0.1305
    MIXING:  cpu time    0.0006: real time    0.0006
    --------------------------------------------
      LOOP:  cpu time    5.3396: real time    5.3402

 eigenvalue-minimisations  :  5928
 total energy-change (2. order) : 0.2672336E+02  (-0.2568168E+02)
 number of electron     160.0000097 magnetization 
 augmentation part       48.9562929 magnetization 

 Broyden mixing:
  rms(total) = 0.45464E+01    rms(broyden)= 0.45463E+01
  rms(prec ) = 0.51144E+01
  weight for this iteration     100.00

 eigenvalues of (default mixing * dielectric matrix)
  average eigenvalue GAMMA=   0.8453
  2.1117  0.2121  0.2121

 Free energy of the ion-electron system (eV)
  ---------------------------------------------------
  alpha Z        PSCENC =       303.52543553
  Ewald energy   TEWEN  =     98869.80740212
  -Hartree energ DENC   =   -110899.78005272
  -exchange      EXHF   =         0.00000000
  -V(xc)+E(xc)   XCENC  =        40.18808302
  PAW double counting   =     13604.75102042   -13184.92024406
  entropy T*S    EENTRO =        -0.00138075
  eigenvalues    EBANDS =      -550.22322337
  atomic energy  EATOM  =     11693.69420960
  Solvation  Ediel_sol  =         0.00000000
  ---------------------------------------------------
  free energy    TOTEN  =      -122.95875021 eV

  energy without entropy =     -122.95736946  energy(sigma->0) =     -122.95828996


--------------------------------------------------------------------------------------------------------




--------------------------------------- Iteration      1(   9)  ---------------------------------------


    POTLOK:  cpu time    0.0164: real time    0.0164
    SETDIJ:  cpu time    0.0021: real time    0.0021
     EDDAV:  cpu time    5.5010: real time    5.5016
       DOS:  cpu time    0.0008: real time    0.0008
    CHARGE:  cpu time    0.1312: real time    0.1312
    MIXING:  cpu time    0.0007: real time    0.0007
    --------------------------------------------
      LOOP:  cpu time    5.6522: real time    5.6528

 eigenvalue-minimisations  :  6312
 total energy-change (2. order) : 0.7269690E+01  (-0.1033630E+02)
 number of electron     160.0000089 magnetization 
 augmentation part       50.0855107 magnetization 

 Broyden mixing:
  rms(total) = 0.34561E+01    rms(broyden)= 0.34560E+01
  rms(prec ) = 0.47547E+01
  weight for this iteration     100.00

 eigenvalues of (default mixing * dielectric matrix)
  average eigenvalue GAMMA=   0.8346
  2.0981  0.8098  0.2769  0.1536

 Free energy of the ion-electron system (eV)
  ---------------------------------------------------
  alpha Z        PSCENC =       303.52543553
  Ewald energy   TEWEN  =     98869.80740212
  -Hartree energ DENC   =   -110718.58702919
  -exchange      EXHF   =         0.00000000
  -V(xc)+E(xc)   XCENC  =        39.46144177
  PAW double counting   =     14215.35127489   -13803.60861282
  entropy T*S    EENTRO =         0.00338911
  eigenvalues    EBANDS =      -715.33657127
  atomic energy  EATOM  =     11693.69420960
  Solvation  Ediel_sol  =         0.00000000
  ---------------------------------------------------
  free energy    TOTEN  =      -115.68906026 eV

  energy without entropy =     -115.69244937  energy(sigma->0) =     -115.69018996


--------------------------------------------------------------------------------------------------------




--------------------------------------- Iteration      1(  10)  ---------------------------------------


    POTLOK:  cpu time    0.0169: real time    0.0182
    SETDIJ:  cpu time    0.0021: real time    0.0021
     EDDAV:  cpu time    4.9651: real time    4.9657
       DOS:  cpu time    0.0008: real time    0.0008
    CHARGE:  cpu time    0.1306: real time    0.1306
    MIXING:  cpu time    0.0007: real time    0.0007
    --------------------------------------------
      LOOP:  cpu time    5.1162: real time    5.1181

 eigenvalue-minimisations  :  5712
 total energy-change (2. order) : 0.2154964E+02  (-0.1506277E+02)
 number of electron     160.0000078 magnetization 
 augmentation part       50.3776012 magnetization 

 Broyden mixing:
  rms(total) = 0.15584E+01    rms(broyden)= 0.15582E+01
  rms(prec ) = 0.16489E+01
  weight for this iteration     100.00

 eigenvalues of (default mixing * dielectric matrix)
  average eigenvalue GAMMA=   0.7297
  2.0762  0.8388  0.2911  0.2911  0.1513

 Free energy of the ion-electron system (eV)
  ---------------------------------------------------
  alpha Z        PSCENC =       303.52543553
  Ewald energy   TEWEN  =     98869.80740212
  -Hartree energ DENC   =   -110746.01294232
  -exchange      EXHF   =         0.00000000
  -V(xc)+E(xc)   XCENC  =        40.35830632
  PAW double counting   =     14388.17087952   -13974.49917455
  entropy T*S    EENTRO =        -0.01072725
  eigenvalues    EBANDS =      -669.17280498
  atomic energy  EATOM  =     11693.69420960
  Solvation  Ediel_sol  =         0.00000000
  ---------------------------------------------------
  free energy    TOTEN  =       -94.13941603 eV

  energy without entropy =      -94.12868877  energy(sigma->0) =      -94.13584028


--------------------------------------------------------------------------------------------------------




--------------------------------------- Iteration      1(  11)  ---------------------------------------


    POTLOK:  cpu time    0.0163: real time    0.0163
    SETDIJ:  cpu time    0.0021: real time    0.0021
     EDDAV:  cpu time    4.8771: real time    4.8777
       DOS:  cpu time    0.0009: real time    0.0009
    CHARGE:  cpu time    0.1308: real time    0.1308
    MIXING:  cpu time    0.0007: real time    0.0007
    --------------------------------------------
      LOOP:  cpu time    5.0279: real time    5.0285

 eigenvalue-minimisations  :  5616
 total energy-change (2. order) : 0.1610450E+01  (-0.1862375E+01)
 number of electron     160.0000080 magnetization 
 augmentation part       50.1949987 magnetization 

 Broyden mixing:
  rms(total) = 0.10915E+01    rms(broyden)= 0.10915E+01
  rms(prec ) = 0.13940E+01
  weight for this iteration     100.00

 eigenvalues of (default mixing * dielectric matrix)
  average eigenvalue GAMMA=   0.7229
  2.0978  0.8695  0.4887  0.4887  0.1553  0.2377

 Free energy of the ion-electron system (eV)
  ---------------------------------------------------
  alpha Z        PSCENC =       303.52543553
  Ewald energy   TEWEN  =     98869.80740212
  -Hartree energ DENC   =   -110748.34915591
  -exchange      EXHF   =         0.00000000
  -V(xc)+E(xc)   XCENC  =        40.33509919
  PAW double counting   =     14425.73715898   -14011.77642576
  entropy T*S    EENTRO =        -0.03694701
  eigenvalues    EBANDS =      -665.46574251
  atomic energy  EATOM  =     11693.69420960
  Solvation  Ediel_sol  =         0.00000000
  ---------------------------------------------------
  free energy    TOTEN  =       -92.52896577 eV

  energy without entropy =      -92.49201876  energy(sigma->0) =      -92.51665010


--------------------------------------------------------------------------------------------------------




--------------------------------------- Iteration      1(  12)  ---------------------------------------


    POTLOK:  cpu time    0.0163: real time    0.0165
    SETDIJ:  cpu time    0.0021: real time    0.0021
     EDDAV:  cpu time    5.0596: real time    5.0601
       DOS:  cpu time    0.0008: real time    0.0008
    CHARGE:  cpu time    0.1304: real time    0.1305
    MIXING:  cpu time    0.0008: real time    0.0008
    --------------------------------------------
      LOOP:  cpu time    5.2099: real time    5.2107

 eigenvalue-minimisations  :  5832
 total energy-change (2. order) : 0.5058720E+00  (-0.1060292E+01)
 number of electron     160.0000082 magnetization 
 augmentation part       50.1796488 magnetization 

 Broyden mixing:
  rms(total) = 0.67186E+00    rms(broyden)= 0.67181E+00
  rms(prec ) = 0.74064E+00
  weight for this iteration     100.00

 eigenvalues of (default mixing * dielectric matrix)
  average eigenvalue GAMMA=   0.6240
  2.0897  0.8061  0.5028  0.5028  0.2390  0.1553  0.0719

 Free energy of the ion-electron system (eV)
  ---------------------------------------------------
  alpha Z        PSCENC =       303.52543553
  Ewald energy   TEWEN  =     98869.80740212
  -Hartree energ DENC   =   -110749.41493382
  -exchange      EXHF   =         0.00000000
  -V(xc)+E(xc)   XCENC  =        40.24406401
  PAW double counting   =     14422.56985142   -14009.11689613
  entropy T*S    EENTRO =        -0.01272159
  eigenvalues    EBANDS =      -663.31950487
  atomic energy  EATOM  =     11693.69420960
  Solvation  Ediel_sol  =         0.00000000
  ---------------------------------------------------
  free energy    TOTEN  =       -92.02309372 eV

  energy without entropy =      -92.01037214  energy(sigma->0) =      -92.01885319


--------------------------------------------------------------------------------------------------------




--------------------------------------- Iteration      1(  13)  ---------------------------------------


    POTLOK:  cpu time    0.0167: real time    0.0180
    SETDIJ:  cpu time    0.0021: real time    0.0021
     EDDAV:  cpu time    4.2197: real time    4.2202
       DOS:  cpu time    0.0008: real time    0.0008
    CHARGE:  cpu time    0.1302: real time    0.1302
    MIXING:  cpu time    0.0008: real time    0.0008
    --------------------------------------------
      LOOP:  cpu time    4.3702: real time    4.3721

 eigenvalue-minimisations  :  4824
 total energy-change (2. order) : 0.1182827E+00  (-0.2547907E-01)
 number of electron     160.0000083 magnetization 
 augmentation part       50.1783684 magnetization 

 Broyden mixing:
  rms(total) = 0.55209E+00    rms(broyden)= 0.55209E+00
  rms(prec ) = 0.61936E+00
  weight for this iteration     100.00

 eigenvalues of (default mixing * dielectric matrix)
  average eigenvalue GAMMA=   0.6285
  2.0545  0.6675  0.6675  0.3904  0.3904  0.4691  0.1552  0.2330

 Free energy of the ion-electron system (eV)
  ---------------------------------------------------
  alpha Z        PSCENC =       303.52543553
  Ewald energy   TEWEN  =     98869.80740212
  -Hartree energ DENC   =   -110747.87985044
  -exchange      EXHF   =         0.00000000
  -V(xc)+E(xc)   XCENC  =        40.26227353
  PAW double counting   =     14402.36058108   -13988.76115382
  entropy T*S    EENTRO =        -0.01718619
  eigenvalues    EBANDS =      -664.89652247
  atomic energy  EATOM  =     11693.69420960
  Solvation  Ediel_sol  =         0.00000000
  ---------------------------------------------------
  free energy    TOTEN  =       -91.90481107 eV

  energy without entropy =      -91.88762487  energy(sigma->0) =      -91.89908234


--------------------------------------------------------------------------------------------------------




--------------------------------------- Iteration      1(  14)  ---------------------------------------


    POTLOK:  cpu time    0.0165: real time    0.0167
    SETDIJ:  cpu time    0.0023: real time    0.0023
     EDDAV:  cpu time    4.7413: real time    4.7419
       DOS:  cpu time    0.0009: real time    0.0009
    CHARGE:  cpu time    0.1305: real time    0.1305
    MIXING:  cpu time    0.0009: real time    0.0009
    --------------------------------------------
      LOOP:  cpu time    4.8923: real time    4.8933

 eigenvalue-minimisations  :  5496
 total energy-change (2. order) : 0.9635479E-01  (-0.2366225E-01)
 number of electron     160.0000082 magnetization 
 augmentation part       50.1868094 magnetization 

 Broyden mixing:
  rms(total) = 0.50064E+00    rms(broyden)= 0.50063E+00
  rms(prec ) = 0.53807E+00
  weight for this iteration     100.00

 eigenvalues of (default mixing * dielectric matrix)
  average eigenvalue GAMMA=   0.7323
  2.1459  1.1107  1.1107  0.5333  0.5333  0.4840  0.1552  0.2371  0.2800

 Free energy of the ion-electron system (eV)
  ---------------------------------------------------
  alpha Z        PSCENC =       303.52543553
  Ewald energy   TEWEN  =     98869.80740212
  -Hartree energ DENC   =   -110745.81051043
  -exchange      EXHF   =         0.00000000
  -V(xc)+E(xc)   XCENC  =        40.29091871
  PAW double counting   =     14345.75499553   -13931.90893990
  entropy T*S    EENTRO =        -0.01593070
  eigenvalues    EBANDS =      -667.14603674
  atomic energy  EATOM  =     11693.69420960
  Solvation  Ediel_sol  =         0.00000000
  ---------------------------------------------------
  free energy    TOTEN  =       -91.80845628 eV

  energy without entropy =      -91.79252557  energy(sigma->0) =      -91.80314604


--------------------------------------------------------------------------------------------------------




--------------------------------------- Iteration      1(  15)  ---------------------------------------


    POTLOK:  cpu time    0.0168: real time    0.0230
    SETDIJ:  cpu time    0.0021: real time    0.0021
     EDDAV:  cpu time    4.3645: real time    4.3650
       DOS:  cpu time    0.0010: real time    0.0010
    CHARGE:  cpu time    0.1311: real time    0.1311
    MIXING:  cpu time    0.0010: real time    0.0010
    --------------------------------------------
      LOOP:  cpu time    4.5165: real time    4.5233

 eigenvalue-minimisations  :  4968
 total energy-change (2. order) : 0.5840854E-01  (-0.1159768E+00)
 number of electron     160.0000080 magnetization 
 augmentation part       50.1955474 magnetization 

 Broyden mixing:
  rms(total) = 0.31734E+00    rms(broyden)= 0.31731E+00
  rms(prec ) = 0.37499E+00
  weight for this iteration     100.00

 eigenvalues of (default mixing * dielectric matrix)
  average eigenvalue GAMMA=   0.7967
  2.2722  1.4561  1.4561  0.8314  0.4674  0.4674  0.1552  0.2346  0.3197  0.3067

 Free energy of the ion-electron system (eV)
  ---------------------------------------------------
  alpha Z        PSCENC =       303.52543553
  Ewald energy   TEWEN  =     98869.80740212
  -Hartree energ DENC   =   -110748.27886268
  -exchange      EXHF   =         0.00000000
  -V(xc)+E(xc)   XCENC  =        40.35668627
  PAW double counting   =     14243.35985487   -13829.30001164
  entropy T*S    EENTRO =        -0.02857141
  eigenvalues    EBANDS =      -664.88619039
  atomic energy  EATOM  =     11693.69420960
  Solvation  Ediel_sol  =         0.00000000
  ---------------------------------------------------
  free energy    TOTEN  =       -91.75004774 eV

  energy without entropy =      -91.72147633  energy(sigma->0) =      -91.74052394


--------------------------------------------------------------------------------------------------------




--------------------------------------- Iteration      1(  16)  ---------------------------------------


    POTLOK:  cpu time    0.0171: real time    0.0185
    SETDIJ:  cpu time    0.0021: real time    0.0021
     EDDAV:  cpu time    3.9892: real time    3.9897
       DOS:  cpu time    0.0008: real time    0.0008
    CHARGE:  cpu time    0.1306: real time    0.1306
    MIXING:  cpu time    0.0011: real time    0.0011
    --------------------------------------------
      LOOP:  cpu time    4.1409: real time    4.1428

 eigenvalue-minimisations  :  4512
 total energy-change (2. order) : 0.1755561E-01  (-0.2332883E-01)
 number of electron     160.0000079 magnetization 
 augmentation part       50.1612556 magnetization 

 Broyden mixing:
  rms(total) = 0.20025E+00    rms(broyden)= 0.20024E+00
  rms(prec ) = 0.24432E+00
  weight for this iteration     100.00

 eigenvalues of (default mixing * dielectric matrix)
  average eigenvalue GAMMA=   0.7636
  2.0198  1.4955  1.4955  0.9679  0.4962  0.4962  0.3836  0.3836  0.1552  0.2356
  0.2705

 Free energy of the ion-electron system (eV)
  ---------------------------------------------------
  alpha Z        PSCENC =       303.52543553
  Ewald energy   TEWEN  =     98869.80740212
  -Hartree energ DENC   =   -110754.60016289
  -exchange      EXHF   =         0.00000000
  -V(xc)+E(xc)   XCENC  =        40.47899379
  PAW double counting   =     14137.03309847   -13722.51048604
  entropy T*S    EENTRO =        -0.02994703
  eigenvalues    EBANDS =      -659.13103569
  atomic energy  EATOM  =     11693.69420960
  Solvation  Ediel_sol  =         0.00000000
  ---------------------------------------------------
  free energy    TOTEN  =       -91.73249214 eV

  energy without entropy =      -91.70254511  energy(sigma->0) =      -91.72250979


--------------------------------------------------------------------------------------------------------




--------------------------------------- Iteration      1(  17)  ---------------------------------------


    POTLOK:  cpu time    0.0166: real time    0.0168
    SETDIJ:  cpu time    0.0021: real time    0.0021
     EDDAV:  cpu time    4.7466: real time    4.7471
       DOS:  cpu time    0.0010: real time    0.0010
    CHARGE:  cpu time    0.1303: real time    0.1303
    MIXING:  cpu time    0.0011: real time    0.0011
    --------------------------------------------
      LOOP:  cpu time    4.8977: real time    4.8984

 eigenvalue-minimisations  :  5472
 total energy-change (2. order) : 0.3086945E-01  (-0.1442377E-01)
 number of electron     160.0000080 magnetization 
 augmentation part       50.1304465 magnetization 

 Broyden mixing:
  rms(total) = 0.82500E-01    rms(broyden)= 0.82486E-01
  rms(prec ) = 0.90826E-01
  weight for this iteration     100.00

 eigenvalues of (default mixing * dielectric matrix)
  average eigenvalue GAMMA=   0.7601
  2.0040  1.4675  1.4675  0.8347  0.8347  0.5310  0.5310  0.4478  0.1552  0.2351
  0.3323  0.2800

 Free energy of the ion-electron system (eV)
  ---------------------------------------------------
  alpha Z        PSCENC =       303.52543553
  Ewald energy   TEWEN  =     98869.80740212
  -Hartree energ DENC   =   -110756.89996760
  -exchange      EXHF   =         0.00000000
  -V(xc)+E(xc)   XCENC  =        40.53691091
  PAW double counting   =     14117.04923997   -13702.18883310
  entropy T*S    EENTRO =        -0.03139607
  eigenvalues    EBANDS =      -657.19462404
  atomic energy  EATOM  =     11693.69420960
  Solvation  Ediel_sol  =         0.00000000
  ---------------------------------------------------
  free energy    TOTEN  =       -91.70162269 eV

  energy without entropy =      -91.67022661  energy(sigma->0) =      -91.69115733


--------------------------------------------------------------------------------------------------------




--------------------------------------- Iteration      1(  18)  ---------------------------------------


    POTLOK:  cpu time    0.0172: real time    0.0184
    SETDIJ:  cpu time    0.0022: real time    0.0022
     EDDAV:  cpu time    3.8511: real time    3.8517
       DOS:  cpu time    0.0009: real time    0.0009
    CHARGE:  cpu time    0.1308: real time    0.1308
    MIXING:  cpu time    0.0012: real time    0.0012
    --------------------------------------------
      LOOP:  cpu time    4.0034: real time    4.0052

 eigenvalue-minimisations  :  4344
 total energy-change (2. order) : 0.4886265E-02  (-0.2284633E-02)
 number of electron     160.0000080 magnetization 
 augmentation part       50.1135885 magnetization 

 Broyden mixing:
  rms(total) = 0.58250E-01    rms(broyden)= 0.58246E-01
  rms(prec ) = 0.62156E-01
  weight for this iteration     100.00

 eigenvalues of (default mixing * dielectric matrix)
  average eigenvalue GAMMA=   0.7786
  2.1531  1.5742  1.5742  0.9326  0.9326  0.5164  0.5164  0.5492  0.1552  0.3526
  0.3526  0.2352  0.2769

 Free energy of the ion-electron system (eV)
  ---------------------------------------------------
  alpha Z        PSCENC =       303.52543553
  Ewald energy   TEWEN  =     98869.80740212
  -Hartree energ DENC   =   -110759.62397941
  -exchange      EXHF   =         0.00000000
  -V(xc)+E(xc)   XCENC  =        40.55612341
  PAW double counting   =     14147.21910921   -13732.28306496
  entropy T*S    EENTRO =        -0.02885498
  eigenvalues    EBANDS =      -654.56311694
  atomic energy  EATOM  =     11693.69420960
  Solvation  Ediel_sol  =         0.00000000
  ---------------------------------------------------
  free energy    TOTEN  =       -91.69673642 eV

  energy without entropy =      -91.66788144  energy(sigma->0) =      -91.68711809


--------------------------------------------------------------------------------------------------------




--------------------------------------- Iteration      1(  19)  ---------------------------------------


    POTLOK:  cpu time    0.0170: real time    0.0170
    SETDIJ:  cpu time    0.0021: real time    0.0021
     EDDAV:  cpu time    3.9930: real time    3.9938
       DOS:  cpu time    0.0010: real time    0.0010
    CHARGE:  cpu time    0.1306: real time    0.1306
    MIXING:  cpu time    0.0012: real time    0.0012
    --------------------------------------------
      LOOP:  cpu time    4.1449: real time    4.1456

 eigenvalue-minimisations  :  4512
 total energy-change (2. order) : 0.2436241E-03  (-0.1760870E-02)
 number of electron     160.0000080 magnetization 
 augmentation part       50.1057893 magnetization 

 Broyden mixing:
  rms(total) = 0.62050E-01    rms(broyden)= 0.62048E-01
  rms(prec ) = 0.76373E-01
  weight for this iteration     100.00

 eigenvalues of (default mixing * dielectric matrix)
  average eigenvalue GAMMA=   0.8471
  2.1529  1.9088  1.9088  1.2239  1.2239  0.6410  0.5111  0.5111  0.1552  0.4233
  0.2352  0.3678  0.2757  0.3207

 Free energy of the ion-electron system (eV)
  ---------------------------------------------------
  alpha Z        PSCENC =       303.52543553
  Ewald energy   TEWEN  =     98869.80740212
  -Hartree energ DENC   =   -110761.51478435
  -exchange      EXHF   =         0.00000000
  -V(xc)+E(xc)   XCENC  =        40.56656566
  PAW double counting   =     14162.24039302   -13747.26448084
  entropy T*S    EENTRO =        -0.03017572
  eigenvalues    EBANDS =      -652.72105781
  atomic energy  EATOM  =     11693.69420960
  Solvation  Ediel_sol  =         0.00000000
  ---------------------------------------------------
  free energy    TOTEN  =       -91.69649280 eV

  energy without entropy =      -91.66631708  energy(sigma->0) =      -91.68643422


--------------------------------------------------------------------------------------------------------




--------------------------------------- Iteration      1(  20)  ---------------------------------------


    POTLOK:  cpu time    0.0168: real time    0.0169
    SETDIJ:  cpu time    0.0021: real time    0.0021
     EDDAV:  cpu time    4.7542: real time    4.7547
       DOS:  cpu time    0.0009: real time    0.0009
    CHARGE:  cpu time    0.1304: real time    0.1304
    MIXING:  cpu time    0.0013: real time    0.0013
    --------------------------------------------
      LOOP:  cpu time    4.9057: real time    4.9063

 eigenvalue-minimisations  :  5496
 total energy-change (2. order) : 0.2735788E-02  (-0.1989803E-02)
 number of electron     160.0000081 magnetization 
 augmentation part       50.1011759 magnetization 

 Broyden mixing:
  rms(total) = 0.18996E-01    rms(broyden)= 0.18989E-01
  rms(prec ) = 0.21551E-01
  weight for this iteration     100.00

 eigenvalues of (default mixing * dielectric matrix)
  average eigenvalue GAMMA=   0.8587
  2.2283  1.9543  1.9543  1.3292  1.3292  0.6457  0.6457  0.5131  0.5131  0.1552
  0.2352  0.3872  0.3872  0.2760  0.3268

 Free energy of the ion-electron system (eV)
  ---------------------------------------------------
  alpha Z        PSCENC =       303.52543553
  Ewald energy   TEWEN  =     98869.80740212
  -Hartree energ DENC   =   -110763.79406758
  -exchange      EXHF   =         0.00000000
  -V(xc)+E(xc)   XCENC  =        40.57952882
  PAW double counting   =     14178.55594140   -13763.49186680
  entropy T*S    EENTRO =        -0.02886057
  eigenvalues    EBANDS =      -650.54147952
  atomic energy  EATOM  =     11693.69420960
  Solvation  Ediel_sol  =         0.00000000
  ---------------------------------------------------
  free energy    TOTEN  =       -91.69375701 eV

  energy without entropy =      -91.66489644  energy(sigma->0) =      -91.68413682


--------------------------------------------------------------------------------------------------------




--------------------------------------- Iteration      1(  21)  ---------------------------------------


    POTLOK:  cpu time    0.0167: real time    0.0167
    SETDIJ:  cpu time    0.0021: real time    0.0021
     EDDAV:  cpu time    4.2434: real time    4.2440
       DOS:  cpu time    0.0009: real time    0.0009
    CHARGE:  cpu time    0.1304: real time    0.1304
    MIXING:  cpu time    0.0013: real time    0.0013
    --------------------------------------------
      LOOP:  cpu time    4.3949: real time    4.3954

 eigenvalue-minimisations  :  4824
 total energy-change (2. order) :-0.7649144E-04  (-0.3102256E-03)
 number of electron     160.0000080 magnetization 
 augmentation part       50.0981757 magnetization 

 Broyden mixing:
  rms(total) = 0.21770E-01    rms(broyden)= 0.21770E-01
  rms(prec ) = 0.25046E-01
  weight for this iteration     100.00

 eigenvalues of (default mixing * dielectric matrix)
  average eigenvalue GAMMA=   0.8942
  2.5353  1.9493  1.9493  1.3202  1.3202  0.8946  0.8946  0.6533  0.5096  0.5096
  0.1552  0.2352  0.3899  0.3899  0.2759  0.3246

 Free energy of the ion-electron system (eV)
  ---------------------------------------------------
  alpha Z        PSCENC =       303.52543553
  Ewald energy   TEWEN  =     98869.80740212
  -Hartree energ DENC   =   -110765.17754887
  -exchange      EXHF   =         0.00000000
  -V(xc)+E(xc)   XCENC  =        40.59232001
  PAW double counting   =     14186.02951709   -13770.90737538
  entropy T*S    EENTRO =        -0.02947019
  eigenvalues    EBANDS =      -649.22832341
  atomic energy  EATOM  =     11693.69420960
  Solvation  Ediel_sol  =         0.00000000
  ---------------------------------------------------
  free energy    TOTEN  =       -91.69383350 eV

  energy without entropy =      -91.66436331  energy(sigma->0) =      -91.68401010


--------------------------------------------------------------------------------------------------------




--------------------------------------- Iteration      1(  22)  ---------------------------------------


    POTLOK:  cpu time    0.0168: real time    0.0168
    SETDIJ:  cpu time    0.0021: real time    0.0021
     EDDAV:  cpu time    4.6208: real time    4.6215
       DOS:  cpu time    0.0008: real time    0.0008
    CHARGE:  cpu time    0.1304: real time    0.1305
    MIXING:  cpu time    0.0014: real time    0.0014
    --------------------------------------------
      LOOP:  cpu time    4.7724: real time    4.7731

 eigenvalue-minimisations  :  5256
 total energy-change (2. order) : 0.2829214E-03  (-0.1946602E-03)
 number of electron     160.0000081 magnetization 
 augmentation part       50.0957507 magnetization 

 Broyden mixing:
  rms(total) = 0.76131E-02    rms(broyden)= 0.76113E-02
  rms(prec ) = 0.88431E-02
  weight for this iteration     100.00

 eigenvalues of (default mixing * dielectric matrix)
  average eigenvalue GAMMA=   0.9311
  2.2411  2.2411  2.2276  1.3158  1.3158  1.1974  1.1974  0.6527  0.6527  0.5107
  0.5107  0.1552  0.2352  0.3875  0.3875  0.2758  0.3247

 Free energy of the ion-electron system (eV)
  ---------------------------------------------------
  alpha Z        PSCENC =       303.52543553
  Ewald energy   TEWEN  =     98869.80740212
  -Hartree energ DENC   =   -110766.39588788
  -exchange      EXHF   =         0.00000000
  -V(xc)+E(xc)   XCENC  =        40.59354843
  PAW double counting   =     14198.31430838   -13783.21022617
[...]
     80      -1.1060      2.07043
     81      -1.0885      2.07021
     82      -1.0777      2.06738
     83      -1.0326      2.02238
     84      -1.0134      1.98152
     85      -0.9450      1.69555
     86      -0.8927      1.32994
     87      -0.2479     -0.00016
     88      -0.0063     -0.00000
     89       0.0678     -0.00000
     90       1.7588     -0.00000
     91       2.0609     -0.00000
     92       2.1179     -0.00000
     93       3.8706     -0.00000
     94       3.9112     -0.00000
     95       4.3080     -0.00000
     96       4.3727     -0.00000

 k-point    19 :       0.4375    0.4375    0.0000
  band No.  band energies     occupation 
      1      -8.8013      2.00000
      2      -8.1343      2.00000
      3      -7.6243      2.00000
      4      -7.2569      2.00000
      5      -6.8259      2.00000
      6      -6.7714      2.00000
      7      -6.6632      2.00000
      8      -6.5985      2.00000
      9      -6.5542      2.00000
     10      -6.5074      2.00000
     11      -6.4912      2.00000
     12      -6.2938      2.00000
     13      -6.2370      2.00000
     14      -6.1249      2.00000
     15      -6.0254      2.00000
     16      -5.9446      2.00000
     17      -5.8793      2.00000
     18      -5.6466      2.00000
     19      -5.5668      2.00000
     20      -5.4782      2.00000
     21      -5.3984      2.00000
     22      -5.3057      2.00000
     23      -5.2447      2.00000
     24      -5.1722      2.00000
     25      -5.1441      2.00000
     26      -5.0749      2.00000
     27      -5.0296      2.00000
     28      -4.8480      2.00000
     29      -4.7452      2.00000
     30      -4.6753      2.00000
     31      -4.6367      2.00000
     32      -4.5655      2.00000
     33      -4.4997      2.00000
     34      -4.4022      2.00000
     35      -4.3063      2.00000
     36      -4.1470      2.00000
     37      -4.1040      2.00000
     38      -4.0330      2.00000
     39      -3.8772      2.00000
     40      -3.8444      2.00000
     41      -3.7995      2.00000
     42      -3.7727      2.00000
     43      -3.7370      2.00000
     44      -3.6703      2.00000
     45      -3.6566      2.00000
     46      -3.6341      2.00000
     47      -3.5731      2.00000
     48      -3.5034      2.00000
     49      -3.5018      2.00000
     50      -3.4043      2.00000
     51      -3.4004      2.00000
     52      -3.3589      2.00000
     53      -3.2962      2.00000
     54      -3.0741      2.00000
     55      -2.9952      2.00000
     56      -2.9498      2.00000
     57      -2.8979      2.00000
     58      -2.7682      2.00000
     59      -2.6797      2.00000
     60      -2.5467      2.00000
     61      -2.5368      2.00000
     62      -2.3883      2.00000
     63      -2.3738      2.00000
     64      -2.3464      2.00000
     65      -2.2708      2.00000
     66      -2.1917      2.00000
     67      -2.1201      2.00000
     68      -2.1075      2.00000
     69      -1.9961      2.00000
     70      -1.9798      2.00000
     71      -1.9545      2.00000
     72      -1.9305      2.00000
     73      -1.7517      2.00000
     74      -1.5870      2.00000
     75      -1.3703      2.00156
     76      -1.3235      2.00435
     77      -1.1525      2.05543
     78      -1.1195      2.06781
     79      -0.9811      1.87550
     80      -0.8351      0.85053
     81      -0.7907      0.50093
     82      -0.7816      0.43762
     83      -0.7389      0.18819
     84      -0.5796     -0.06588
     85      -0.5014     -0.03224
     86      -0.3890     -0.00500
     87       1.0889     -0.00000
     88       1.1634     -0.00000
     89       1.2465     -0.00000
     90       1.7445     -0.00000
     91       1.7644     -0.00000
     92       1.8880     -0.00000
     93       2.8097     -0.00000
     94       2.9136     -0.00000
     95       3.2570     -0.00000
     96       4.3487     -0.00000

 k-point    20 :      -0.4375    0.4375    0.0000
  band No.  band energies     occupation 
      1      -8.4030      2.00000
      2      -8.3188      2.00000
      3      -7.3290      2.00000
      4      -7.2905      2.00000
      5      -6.9482      2.00000
      6      -6.6914      2.00000
      7      -6.5820      2.00000
      8      -6.5032      2.00000
      9      -6.4513      2.00000
     10      -6.3415      2.00000
     11      -6.3064      2.00000
     12      -6.2386      2.00000
     13      -6.1765      2.00000
     14      -6.0482      2.00000
     15      -5.8819      2.00000
     16      -5.8332      2.00000
     17      -5.7811      2.00000
     18      -5.7425      2.00000
     19      -5.5737      2.00000
     20      -5.5041      2.00000
     21      -5.4256      2.00000
     22      -5.3478      2.00000
     23      -5.2285      2.00000
     24      -5.1764      2.00000
     25      -5.1601      2.00000
     26      -5.1171      2.00000
     27      -5.0586      2.00000
     28      -5.0181      2.00000
     29      -4.7685      2.00000
     30      -4.6542      2.00000
     31      -4.6199      2.00000
     32      -4.5636      2.00000
     33      -4.5022      2.00000
     34      -4.4650      2.00000
     35      -4.3405      2.00000
     36      -4.3029      2.00000
     37      -4.1625      2.00000
     38      -4.1371      2.00000
     39      -4.0965      2.00000
     40      -4.0565      2.00000
     41      -3.9789      2.00000
     42      -3.8276      2.00000
     43      -3.7782      2.00000
     44      -3.7616      2.00000
     45      -3.7526      2.00000
     46      -3.6999      2.00000
     47      -3.6530      2.00000
     48      -3.6324      2.00000
     49      -3.5762      2.00000
     50      -3.4762      2.00000
     51      -3.3956      2.00000
     52      -3.3393      2.00000
     53      -3.2410      2.00000
     54      -3.0627      2.00000
     55      -2.9789      2.00000
     56      -2.9278      2.00000
     57      -2.8400      2.00000
     58      -2.8325      2.00000
     59      -2.7068      2.00000
     60      -2.6337      2.00000
     61      -2.4668      2.00000
     62      -2.4567      2.00000
     63      -2.3738      2.00000
     64      -2.3181      2.00000
     65      -2.2008      2.00000
     66      -2.1685      2.00000
     67      -2.1124      2.00000
     68      -2.0277      2.00000
     69      -1.9724      2.00000
     70      -1.9190      2.00000
     71      -1.8622      2.00000
     72      -1.7730      2.00000
     73      -1.7619      2.00000
     74      -1.5968      2.00000
     75      -1.4205      2.00045
     76      -1.3829      2.00115
     77      -1.2326      2.02187
     78      -1.1205      2.06751
     79      -1.0569      2.05420
     80      -0.9351      1.63516
     81      -0.9119      1.47655
     82      -0.8799      1.22673
     83      -0.7009      0.04187
     84      -0.6450     -0.05744
     85      -0.4995     -0.03151
     86      -0.4096     -0.00748
     87       0.1707     -0.00000
     88       0.5402     -0.00000
     89       1.4646     -0.00000
     90       1.5353     -0.00000
     91       1.5673     -0.00000
     92       2.2807     -0.00000
     93       3.1945     -0.00000
     94       3.3991     -0.00000
     95       3.9167     -0.00000
     96       3.9889     -0.00000


--------------------------------------------------------------------------------------------------------


 soft charge-density along one line, spin component           1
         0         1         2         3         4         5         6         7         8         9
 total charge-density along one line
 
 pseudopotential strength for first ion, spin component:           1
 -8.319   0.000  -0.000  -0.013  -0.000  -8.529   0.000  -0.000
  0.000  -8.239   0.000  -0.000  -0.013   0.000  -8.450   0.000
 -0.000   0.000  -8.240   0.000  -0.000  -0.000   0.000  -8.451
 -0.013  -0.000   0.000  -8.239   0.000  -0.013  -0.000   0.000
 -0.000  -0.013  -0.000   0.000  -8.319  -0.000  -0.013  -0.000
 -8.529   0.000  -0.000  -0.013  -0.000  -8.724   0.000  -0.000
  0.000  -8.450   0.000  -0.000  -0.013   0.000  -8.647   0.000
 -0.000   0.000  -8.451   0.000  -0.000  -0.000   0.000  -8.648
 -0.013  -0.000   0.000  -8.450   0.000  -0.013  -0.000   0.000
 -0.000  -0.013  -0.000   0.000  -8.529  -0.000  -0.013  -0.000
 -0.000  -0.000  -0.022  -0.000  -0.000  -0.000  -0.000  -0.021
 -0.000  -0.000  -0.033  -0.000  -0.000  -0.000  -0.000  -0.033
 -0.000  -0.006  -0.000  -0.000   0.000  -0.000  -0.006  -0.000
 -0.000  -0.000  -0.013  -0.000  -0.000  -0.000  -0.000  -0.013
  0.000  -0.000  -0.000  -0.006  -0.000   0.000  -0.000  -0.000
 -0.000  -0.005  -0.000  -0.000   0.000  -0.000  -0.005  -0.000
 -0.000  -0.000  -0.014  -0.000  -0.000  -0.000  -0.000  -0.014
  0.000  -0.000  -0.000  -0.005  -0.000   0.000  -0.000  -0.000
 total augmentation occupancy for first ion, spin component:           1
  2.615   0.000  -0.000  -0.312   0.000  -1.859  -0.000   0.000   0.093   0.000  -0.000   0.000   0.000   0.000  -0.044  -0.000
  0.000   3.478   0.000   0.000  -0.312  -0.000  -1.944  -0.000  -0.000   0.100  -0.000   0.000  -0.251   0.000  -0.000   0.010
 -0.000   0.000   3.636   0.000  -0.000   0.000  -0.000  -2.371  -0.000   0.000   0.668  -0.062   0.000  -0.248   0.000  -0.000
 -0.312   0.000   0.000   3.478  -0.000   0.100  -0.000  -0.000  -1.944   0.000   0.000   0.000  -0.000   0.000  -0.251   0.000
  0.000  -0.312  -0.000  -0.000   2.615   0.000   0.093   0.000   0.000  -1.859  -0.000   0.000  -0.044   0.000  -0.000   0.003
 -1.859  -0.000   0.000   0.100   0.000   2.531  -0.000  -0.000   0.047   0.000   0.000  -0.000  -0.000  -0.000   0.045   0.000
 -0.000  -1.944  -0.000  -0.000   0.093  -0.000   2.016  -0.000   0.000   0.047  -0.000  -0.000   0.237  -0.000   0.000  -0.016
  0.000  -0.000  -2.371  -0.000   0.000  -0.000  -0.000   2.650   0.000  -0.000  -0.705   0.088  -0.000   0.333  -0.000   0.000
  0.093   0.000  -0.000  -1.944   0.000   0.047   0.000   0.000   2.016   0.000  -0.000  -0.000   0.000   0.000   0.237  -0.000
  0.000   0.100   0.000   0.000  -1.859   0.000   0.047  -0.000   0.000   2.531   0.000  -0.000   0.045  -0.000   0.000  -0.003
 -0.000   0.000   0.668   0.000  -0.000   0.000  -0.000  -0.705   0.000   0.000   2.090  -0.345   0.000   0.171  -0.000   0.000
  0.000   0.000  -0.062   0.000   0.000  -0.000   0.000   0.088  -0.000  -0.000  -0.345   0.074   0.000  -0.051   0.000   0.000
  0.000  -0.251   0.000  -0.000  -0.044  -0.000   0.237  -0.000   0.000   0.045   0.000   0.000   0.264   0.000   0.000  -0.014
  0.000  -0.000  -0.248   0.000   0.000  -0.000   0.000   0.333   0.000  -0.000   0.171  -0.051   0.000   0.147   0.000   0.000
 -0.044  -0.000   0.000  -0.251  -0.000   0.045   0.000  -0.000   0.237   0.000  -0.000   0.000   0.000   0.000   0.264   0.000
 -0.000   0.010  -0.000   0.000   0.003   0.000  -0.016   0.000  -0.000  -0.003   0.000   0.000  -0.014   0.000  -0.000   0.001
 -0.000  -0.000  -0.001   0.000   0.000   0.000   0.000  -0.019   0.000   0.000  -0.017   0.004  -0.000  -0.009   0.000   0.000
  0.003   0.000  -0.000   0.010   0.000  -0.003  -0.000   0.000  -0.016  -0.000  -0.000   0.000  -0.000   0.000  -0.014   0.000


------------------------ aborting loop because EDIFF is reached ----------------------------------------



 DIPCOR: dipole corrections for dipol
 direction  3 min pos   280,
 dipolmoment           0.000000      0.000000      0.005307 electrons x Angstroem
 Tr[quadrupol]      -957.993750

 energy correction for charged system         0.000000 eV
 dipol+quadrupol energy correction            0.000003 eV
 added-field ion interaction          0.000000 eV  (added to PSCEN)

 
  *************** adding dipol energy to TOTEN NOW **************** 
    CHARGE:  cpu time    0.1308: real time    0.1308
    FORLOC:  cpu time    0.0023: real time    0.0023
    FORNL :  cpu time    1.7543: real time    1.7545
    STRESS:  cpu time    2.9635: real time    2.9638
    FORCOR:  cpu time    0.0180: real time    0.0180
    FORHAR:  cpu time    0.0055: real time    0.0055
    MIXING:  cpu time    0.0023: real time    0.0023
    OFIELD:  cpu time    0.0000: real time    0.0001

  FORCE on cell =-STRESS in cart. coord.  units (eV):
  Direction    XX          YY          ZZ          XY          YZ          ZX
  --------------------------------------------------------------------------------------
  Alpha Z   303.52544   303.52544   303.52544
  Ewald  107763.25710107763.25710************    -0.00000    -0.00000    -0.00000
  Hartree110069.29898110069.29898************    -0.00000     0.00000     0.00000
  E(xc)    -709.62841  -709.62842  -714.49852     0.00001    -0.00000    -0.00001
  Local  ************************223176.71260     0.00104    -0.00004    -0.00007
  n-local    95.89883    22.64708    40.88519   -20.41711    -4.46617     2.40181
  augment   834.21844   834.21934   862.99561    -0.00078     0.00000     0.00001
  Kinetic  2292.96253  2269.53915  2355.50068    -5.61245    -5.03571     3.61013
  Fock        0.00000     0.00000     0.00000     0.00000     0.00000     0.00000
  -------------------------------------------------------------------------------------
  Total     -11.22778   -11.22778     0.26334     0.00000    -0.00000     0.00000
  in kB     -21.82780   -21.82780     0.51196     0.00000    -0.00000     0.00000
  external pressure =      -14.38 kB  Pullay stress =        0.00 kB


 VOLUME and BASIS-vectors are now :
 -----------------------------------------------------------------------------
  energy-cutoff  :      350.00
  volume of cell :      824.13
      direct lattice vectors                 reciprocal lattice vectors
     5.557859300  0.000000000  0.000000000     0.179925390 -0.103879972  0.000000000
     2.778929650  4.813247345  0.000000000     0.000000000  0.207759944  0.000000000
     0.000000000  0.000000000 30.806959674     0.000000000  0.000000000  0.032460198

  length of vectors
     5.557859300  5.557859300 30.806959674     0.207759944  0.207759944  0.032460198


 FORCES acting on ions
    electron-ion (+dipol)            ewald-force                    non-local-force                 convergence-correction
 -----------------------------------------------------------------------------------------------
   -.470E-06 -.271E-06 0.257E+04   -.860E-12 -.464E-12 -.257E+04   0.217E-18 -.217E-18 -.818E-01   0.283E-09 0.163E-09 0.229E-02
   0.939E-06 0.269E+00 0.286E+04   -.963E-12 -.285E+00 -.285E+04   0.000E+00 0.605E-01 -.779E+00   0.181E-09 -.368E-03 0.248E-02
   0.233E+00 -.135E+00 0.286E+04   -.247E+00 0.142E+00 -.285E+04   0.524E-01 -.303E-01 -.779E+00   -.319E-03 0.184E-03 0.248E-02
   -.233E+00 -.135E+00 0.286E+04   0.247E+00 0.142E+00 -.285E+04   -.524E-01 -.303E-01 -.779E+00   0.319E-03 0.184E-03 0.248E-02
   0.955E+01 0.551E+01 0.101E+04   -.990E+01 -.572E+01 -.101E+04   0.932E-01 0.538E-01 -.224E+00   0.209E-03 0.120E-03 0.166E-01
   -.955E+01 0.551E+01 0.101E+04   0.990E+01 -.572E+01 -.101E+04   -.932E-01 0.538E-01 -.224E+00   -.209E-03 0.120E-03 0.166E-01
   0.117E-05 -.110E+02 0.101E+04   0.266E-11 0.114E+02 -.101E+04   0.173E-17 -.108E+00 -.224E+00   -.900E-09 -.241E-03 0.166E-01
   0.129E-05 0.743E-06 0.997E+03   0.313E-11 0.189E-11 -.997E+03   0.000E+00 0.000E+00 -.330E+00   -.405E-09 -.234E-09 0.164E-01
   -.986E-06 0.262E+00 -.927E+03   -.294E-11 -.285E+00 0.926E+03   0.434E-17 0.432E-01 0.402E+00   -.533E-09 0.123E-03 0.198E-01
   -.227E+00 -.131E+00 -.927E+03   0.247E+00 0.142E+00 0.926E+03   -.374E-01 -.216E-01 0.402E+00   -.107E-03 -.617E-04 0.198E-01
   0.227E+00 -.131E+00 -.927E+03   -.247E+00 0.142E+00 0.926E+03   0.374E-01 -.216E-01 0.402E+00   0.107E-03 -.617E-04 0.198E-01
   -.111E-05 -.643E-06 -.284E+04   0.115E-11 0.659E-12 0.283E+04   -.217E-17 0.000E+00 0.903E+00   0.705E-10 0.407E-10 0.481E-02
   -.957E-06 0.535E+01 -.284E+04   0.644E-12 -.553E+01 0.284E+04   0.520E-17 0.938E-01 0.103E+01   -.452E-09 -.155E-03 0.491E-02
   0.463E+01 -.268E+01 -.284E+04   -.479E+01 0.277E+01 0.284E+04   0.812E-01 -.469E-01 0.103E+01   -.134E-03 0.776E-04 0.491E-02
   -.463E+01 -.268E+01 -.284E+04   0.479E+01 0.277E+01 0.284E+04   -.812E-01 -.469E-01 0.103E+01   0.134E-03 0.776E-04 0.491E-02
   -.112E-05 -.648E-06 -.102E+04   -.323E-11 -.201E-11 0.102E+04   -.651E-18 0.000E+00 0.382E+00   -.203E-09 -.117E-09 0.221E-01
 -----------------------------------------------------------------------------------------------
   -.102E-05 -.587E-06 -.233E+01   0.470E-14 0.354E-14 -.568E-12   0.410E-16 -.139E-16 0.215E+01   -.146E-08 -.842E-09 0.177E+00
 
 
 POSITION                                       TOTAL-FORCE (eV/Angst)
 -----------------------------------------------------------------------------------
      0.00000      0.00000     12.00000         0.000000     -0.000000      0.859256
      2.77893      0.00000     12.00000         0.000000      0.044585     -0.134755
      1.38946      2.40662     12.00000         0.038612     -0.022292     -0.134755
      4.16839      2.40662     12.00000        -0.038612     -0.022292     -0.134755
      1.38946      0.80221     14.31554        -0.257518     -0.148678     -0.437430
      4.16839      0.80221     14.31554         0.257518     -0.148678     -0.437430
      2.77893      3.20883     14.31554        -0.000000      0.297356     -0.437430
      5.55786      3.20883     14.31554         0.000000     -0.000000      0.138726
      5.55786      1.60442     16.61120         0.000000      0.020317      0.086321
      6.94732      4.01104     16.61120        -0.017595     -0.010159      0.086321
      4.16839      4.01104     16.61120         0.017595     -0.010159      0.086321
      0.00000      0.00000     18.94198         0.000000     -0.000000     -0.080028
      2.77893      0.00000     18.94198         0.000000     -0.091052      0.153770
      1.38946      2.40662     18.94198        -0.078854      0.045526      0.153770
      4.16839      2.40662     18.94198         0.078854      0.045526      0.153770
      2.77893      1.60442     16.61120         0.000000     -0.000000      0.078327
 -----------------------------------------------------------------------------------
    total drift:                               -0.000001     -0.000001     -0.003105


--------------------------------------------------------------------------------------------------------



  FREE ENERGIE OF THE ION-ELECTRON SYSTEM (eV)
  ---------------------------------------------------
  free  energy   TOTEN  =       -91.69380623 eV

  energy  without entropy=      -91.66505360  energy(sigma->0) =      -91.68422202
 


--------------------------------------------------------------------------------------------------------


    POTLOK:  cpu time    0.0195: real time    0.0195


--------------------------------------------------------------------------------------------------------


     LOOP+:  cpu time  139.6887: real time  139.7529
    4ORBIT:  cpu time    0.0000: real time    0.0000

 total amount of memory used by VASP MPI-rank0   165803. kBytes
=======================================================================

   base      :      30000. kBytes
   nonl-proj :     109741. kBytes
   fftplans  :       2015. kBytes
   grid      :       7641. kBytes
   one-center:        248. kBytes
   wavefun   :      16158. kBytes
 
  
  
 General timing and accounting informations for this job:
 ========================================================
  
                  Total CPU time used (sec):      141.966
                            User time (sec):      141.469
                          System time (sec):        0.497
                         Elapsed time (sec):      142.176
  
                   Maximum memory used (kb):      197896.
                   Average memory used (kb):           0.
  
                          Minor page faults:        68106
                          Major page faults:            0
                 Voluntary context switches:          559
