  16  16   0   0
  0.5150799E+02  0.5557859E-09  0.5557859E-09  0.3080696E-08  0.5000000E-15
  1.000000000000000E-004
  CAR 
 unknown system                          
      6.48100503    -12.25241949  301     -0.87041999      1.00000000
    -12.252  0.0000E+00  0.0000E+00
    -12.190  0.0000E+00  0.0000E+00
    -12.128  0.0000E+00  0.0000E+00
    -12.065  0.0000E+00  0.0000E+00
    -12.003  0.0000E+00  0.0000E+00
    -11.940  0.0000E+00  0.0000E+00
    -11.878 -0.4773E-28 -0.2980E-29
    -11.815 -0.6639E-26 -0.4176E-27
    -11.753 -0.7604E-24 -0.4790E-25
    -11.690 -0.7154E-22 -0.4515E-23
    -11.628 -0.5527E-20 -0.3497E-21
    -11.566 -0.3506E-18 -0.2224E-19
    -11.503 -0.1826E-16 -0.1162E-17
    -11.441 -0.7803E-15 -0.4989E-16
    -11.378 -0.2652E-13 -0.1706E-14
    -11.316 -0.7591E-12 -0.4911E-13
    -11.253 -0.1781E-10 -0.1161E-11
    -11.191 -0.3421E-09 -0.2253E-10
    -11.128 -0.5374E-08 -0.3581E-09
    -11.066 -0.6894E-07 -0.4663E-08
    -11.004 -0.7213E-06 -0.4971E-07
    -10.941 -0.6142E-05 -0.4332E-06
    -10.879 -0.4242E-04 -0.3082E-05
    -10.816 -0.2367E-03 -0.1786E-04
    -10.754 -0.1059E-02 -0.8399E-04
    -10.691 -0.3758E-02 -0.3187E-03
    -10.629 -0.1036E-01 -0.9657E-03
    -10.566 -0.2123E-01 -0.2291E-02
    -10.504 -0.2842E-01 -0.4066E-02
    -10.442 -0.9319E-02 -0.4648E-02
    -10.379  0.6654E-01 -0.4932E-03
    -10.317  0.2127E+00  0.1279E-01
    -10.254  0.4066E+00  0.3818E-01
    -10.192  0.6041E+00  0.7590E-01
    -10.129  0.7710E+00  0.1240E+00
    -10.067  0.8882E+00  0.1795E+00
    -10.004  0.9374E+00  0.2380E+00
     -9.942  0.9085E+00  0.2948E+00
     -9.880  0.8258E+00  0.3463E+00
     -9.817  0.7550E+00  0.3935E+00
     -9.755  0.7707E+00  0.4416E+00
     -9.692  0.8911E+00  0.4973E+00
     -9.630  0.1038E+01  0.5621E+00
     -9.567  0.1097E+01  0.6306E+00
     -9.505  0.1030E+01  0.6949E+00
     -9.442  0.9041E+00  0.7513E+00
     -9.380  0.8007E+00  0.8013E+00
     -9.318  0.7476E+00  0.8480E+00
     -9.255  0.7523E+00  0.8950E+00
     -9.193  0.8472E+00  0.9479E+00
     -9.130  0.1050E+01  0.1013E+01
     -9.068  0.1304E+01  0.1095E+01
     -9.005  0.1510E+01  0.1189E+01
     -8.943  0.1627E+01  0.1291E+01
     -8.880  0.1698E+01  0.1397E+01
     -8.818  0.1767E+01  0.1507E+01
     -8.756  0.1815E+01  0.1620E+01
     -8.693  0.1808E+01  0.1733E+01
     -8.631  0.1781E+01  0.1845E+01
     -8.568  0.1839E+01  0.1959E+01
     -8.506  0.2050E+01  0.2087E+01
     -8.443  0.2357E+01  0.2235E+01
     -8.381  0.2604E+01  0.2397E+01
     -8.318  0.2659E+01  0.2563E+01
     -8.256  0.2528E+01  0.2721E+01
     -8.194  0.2330E+01  0.2867E+01
     -8.131  0.2160E+01  0.3002E+01
     -8.069  0.2034E+01  0.3129E+01
     -8.006  0.2027E+01  0.3255E+01
     -7.944  0.2370E+01  0.3403E+01
     -7.881  0.3233E+01  0.3605E+01
     -7.819  0.4433E+01  0.3882E+01
     -7.756  0.5557E+01  0.4229E+01
     -7.694  0.6430E+01  0.4630E+01
     -7.632  0.7253E+01  0.5083E+01
     -7.569  0.8233E+01  0.5597E+01
     -7.507  0.9336E+01  0.6180E+01
     -7.444  0.1050E+02  0.6836E+01
     -7.382  0.1176E+02  0.7570E+01
     -7.319  0.1304E+02  0.8384E+01
     -7.257  0.1395E+02  0.9255E+01
     -7.194  0.1411E+02  0.1014E+02
     -7.132  0.1361E+02  0.1099E+02
     -7.070  0.1301E+02  0.1180E+02
     -7.007  0.1291E+02  0.1260E+02
     -6.945  0.1359E+02  0.1345E+02
     -6.882  0.1489E+02  0.1438E+02
     -6.820  0.1656E+02  0.1542E+02
     -6.757  0.1842E+02  0.1657E+02
     -6.695  0.2038E+02  0.1784E+02
     -6.632  0.2222E+02  0.1923E+02
     -6.570  0.2350E+02  0.2069E+02
     -6.508  0.2398E+02  0.2219E+02
     -6.445  0.2379E+02  0.2368E+02
     -6.383  0.2334E+02  0.2513E+02
     -6.320  0.2288E+02  0.2656E+02
     -6.258  0.2223E+02  0.2795E+02
     -6.195  0.2103E+02  0.2926E+02
     -6.133  0.1913E+02  0.3046E+02
     -6.070  0.1679E+02  0.3151E+02
     -6.008  0.1448E+02  0.3241E+02
     -5.945  0.1267E+02  0.3320E+02
     -5.883  0.1179E+02  0.3394E+02
     -5.821  0.1217E+02  0.3470E+02
     -5.758  0.1387E+02  0.3556E+02
     -5.696  0.1649E+02  0.3659E+02
     -5.633  0.1922E+02  0.3779E+02
     -5.571  0.2113E+02  0.3911E+02
     -5.508  0.2171E+02  0.4047E+02
     -5.446  0.2115E+02  0.4179E+02
     -5.383  0.2030E+02  0.4306E+02
     -5.321  0.2005E+02  0.4431E+02
     -5.259  0.2069E+02  0.4560E+02
     -5.196  0.2177E+02  0.4696E+02
     -5.134  0.2242E+02  0.4836E+02
     -5.071  0.2202E+02  0.4974E+02
     -5.009  0.2068E+02  0.5103E+02
     -4.946  0.1919E+02  0.5223E+02
     -4.884  0.1859E+02  0.5339E+02
     -4.821  0.1943E+02  0.5460E+02
     -4.759  0.2144E+02  0.5594E+02
     -4.697  0.2378E+02  0.5742E+02
     -4.634  0.2554E+02  0.5902E+02
     -4.572  0.2633E+02  0.6066E+02
     -4.509  0.2641E+02  0.6231E+02
     -4.447  0.2642E+02  0.6396E+02
     -4.384  0.2689E+02  0.6564E+02
     -4.322  0.2801E+02  0.6739E+02
     -4.259  0.2956E+02  0.6924E+02
     -4.197  0.3101E+02  0.7117E+02
     -4.135  0.3177E+02  0.7316E+02
     -4.072  0.3171E+02  0.7514E+02
     -4.010  0.3137E+02  0.7710E+02
     -3.947  0.3158E+02  0.7907E+02
     -3.885  0.3272E+02  0.8111E+02
     -3.822  0.3428E+02  0.8325E+02
     -3.760  0.3514E+02  0.8545E+02
     -3.697  0.3436E+02  0.8759E+02
     -3.635  0.3201E+02  0.8959E+02
     -3.573  0.2909E+02  0.9141E+02
     -3.510  0.2665E+02  0.9307E+02
     -3.448  0.2482E+02  0.9462E+02
     -3.385  0.2298E+02  0.9606E+02
     -3.323  0.2063E+02  0.9734E+02
     -3.260  0.1823E+02  0.9848E+02
     -3.198  0.1689E+02  0.9954E+02
     -3.135  0.1756E+02  0.1006E+03
     -3.073  0.2021E+02  0.1019E+03
     -3.011  0.2386E+02  0.1034E+03
     -2.948  0.2706E+02  0.1051E+03
     -2.886  0.2863E+02  0.1069E+03
     -2.823  0.2818E+02  0.1086E+03
     -2.761  0.2639E+02  0.1103E+03
     -2.698  0.2440E+02  0.1118E+03
     -2.636  0.2309E+02  0.1132E+03
     -2.573  0.2249E+02  0.1146E+03
     -2.511  0.2208E+02  0.1160E+03
     -2.449  0.2151E+02  0.1174E+03
     -2.386  0.2098E+02  0.1187E+03
     -2.324  0.2096E+02  0.1200E+03
     -2.261  0.2162E+02  0.1213E+03
     -2.199  0.2283E+02  0.1228E+03
     -2.136  0.2440E+02  0.1243E+03
     -2.074  0.2621E+02  0.1259E+03
     -2.011  0.2799E+02  0.1277E+03
     -1.949  0.2925E+02  0.1295E+03
     -1.887  0.2953E+02  0.1313E+03
     -1.824  0.2877E+02  0.1331E+03
     -1.762  0.2741E+02  0.1348E+03
     -1.699  0.2603E+02  0.1365E+03
     -1.637  0.2484E+02  0.1380E+03
     -1.574  0.2366E+02  0.1395E+03
     -1.512  0.2259E+02  0.1409E+03
     -1.449  0.2228E+02  0.1423E+03
     -1.387  0.2344E+02  0.1438E+03
     -1.325  0.2609E+02  0.1454E+03
     -1.262  0.2942E+02  0.1472E+03
     -1.200  0.3232E+02  0.1492E+03
     -1.137  0.3401E+02  0.1514E+03
     -1.075  0.3433E+02  0.1535E+03
     -1.012  0.3357E+02  0.1556E+03
     -0.950  0.3211E+02  0.1576E+03
     -0.887  0.3025E+02  0.1595E+03
     -0.825  0.2819E+02  0.1613E+03
     -0.763  0.2594E+02  0.1629E+03
     -0.700  0.2339E+02  0.1643E+03
     -0.638  0.2064E+02  0.1656E+03
     -0.575  0.1800E+02  0.1668E+03
     -0.513  0.1569E+02  0.1677E+03
     -0.450  0.1366E+02  0.1686E+03
     -0.388  0.1174E+02  0.1693E+03
     -0.325  0.9892E+01  0.1699E+03
     -0.263  0.8229E+01  0.1705E+03
     -0.201  0.6963E+01  0.1709E+03
     -0.138  0.6343E+01  0.1713E+03
     -0.076  0.6382E+01  0.1717E+03
     -0.013  0.6621E+01  0.1721E+03
      0.049  0.6414E+01  0.1725E+03
      0.112  0.5585E+01  0.1728E+03
      0.174  0.4644E+01  0.1731E+03
      0.237  0.4223E+01  0.1734E+03
      0.299  0.4397E+01  0.1737E+03
      0.361  0.4686E+01  0.1740E+03
      0.424  0.4652E+01  0.1743E+03
      0.486  0.4331E+01  0.1745E+03
      0.549  0.4104E+01  0.1748E+03
      0.611  0.4277E+01  0.1751E+03
      0.674  0.4868E+01  0.1754E+03
      0.736  0.5652E+01  0.1757E+03
      0.799  0.6293E+01  0.1761E+03
      0.861  0.6498E+01  0.1765E+03
      0.923  0.6206E+01  0.1769E+03
      0.986  0.5645E+01  0.1772E+03
      1.048  0.5119E+01  0.1776E+03
      1.111  0.4735E+01  0.1779E+03
      1.173  0.4399E+01  0.1781E+03
      1.236  0.4058E+01  0.1784E+03
      1.298  0.3834E+01  0.1786E+03
      1.361  0.3913E+01  0.1789E+03
      1.423  0.4315E+01  0.1791E+03
      1.485  0.4868E+01  0.1795E+03
      1.548  0.5393E+01  0.1798E+03
      1.610  0.5846E+01  0.1802E+03
      1.673  0.6190E+01  0.1805E+03
      1.735  0.6228E+01  0.1809E+03
      1.798  0.5755E+01  0.1813E+03
      1.860  0.4896E+01  0.1816E+03
      1.923  0.4163E+01  0.1819E+03
      1.985  0.4075E+01  0.1821E+03
      2.047  0.4710E+01  0.1824E+03
      2.110  0.5605E+01  0.1828E+03
      2.172  0.6103E+01  0.1831E+03
      2.235  0.5906E+01  0.1835E+03
      2.297  0.5301E+01  0.1838E+03
      2.360  0.4833E+01  0.1841E+03
      2.422  0.4714E+01  0.1844E+03
      2.485  0.4619E+01  0.1847E+03
      2.547  0.4160E+01  0.1850E+03
      2.609  0.3479E+01  0.1852E+03
      2.672  0.3229E+01  0.1854E+03
      2.734  0.3907E+01  0.1856E+03
      2.797  0.5285E+01  0.1860E+03
      2.859  0.6514E+01  0.1864E+03
      2.922  0.6778E+01  0.1868E+03
      2.984  0.5912E+01  0.1872E+03
      3.047  0.4482E+01  0.1874E+03
      3.109  0.3303E+01  0.1877E+03
      3.171  0.2878E+01  0.1878E+03
      3.234  0.3172E+01  0.1880E+03
      3.296  0.3768E+01  0.1883E+03
      3.359  0.4206E+01  0.1885E+03
      3.421  0.4284E+01  0.1888E+03
      3.484  0.4067E+01  0.1891E+03
      3.546  0.3663E+01  0.1893E+03
      3.609  0.3122E+01  0.1895E+03
      3.671  0.2646E+01  0.1896E+03
      3.733  0.2669E+01  0.1898E+03
      3.796  0.3458E+01  0.1900E+03
      3.858  0.4632E+01  0.1903E+03
      3.921  0.5316E+01  0.1906E+03
      3.983  0.4911E+01  0.1910E+03
      4.046  0.3637E+01  0.1912E+03
      4.108  0.2270E+01  0.1913E+03
      4.171  0.1449E+01  0.1914E+03
      4.233  0.1287E+01  0.1915E+03
      4.295  0.1513E+01  0.1916E+03
      4.358  0.1771E+01  0.1917E+03
      4.420  0.1808E+01  0.1918E+03
      4.483  0.1536E+01  0.1919E+03
      4.545  0.1042E+01  0.1920E+03
      4.608  0.5221E+00  0.1920E+03
      4.670  0.1466E+00  0.1920E+03
      4.733 -0.3307E-01  0.1920E+03
      4.795 -0.7102E-01  0.1920E+03
      4.857 -0.5010E-01  0.1920E+03
      4.920 -0.2374E-01  0.1920E+03
      4.982 -0.8455E-02  0.1920E+03
      5.045 -0.2353E-02  0.1920E+03
      5.107 -0.5212E-03  0.1920E+03
      5.170 -0.9278E-04  0.1920E+03
      5.232 -0.1335E-04  0.1920E+03
      5.295 -0.1560E-05  0.1920E+03
      5.357 -0.1483E-06  0.1920E+03
      5.419 -0.1150E-07  0.1920E+03
      5.482 -0.7280E-09  0.1920E+03
      5.544 -0.3770E-10  0.1920E+03
      5.607 -0.1599E-11  0.1920E+03
      5.669 -0.5526E-13  0.1920E+03
      5.732 -0.1556E-14  0.1920E+03
      5.794  0.0000E+00  0.1920E+03
      5.857  0.0000E+00  0.1920E+03
      5.919  0.0000E+00  0.1920E+03
      5.981  0.0000E+00  0.1920E+03
      6.044  0.0000E+00  0.1920E+03
      6.106  0.0000E+00  0.1920E+03
      6.169  0.0000E+00  0.1920E+03
      6.231  0.0000E+00  0.1920E+03
      6.294  0.0000E+00  0.1920E+03
      6.356  0.0000E+00  0.1920E+03
      6.419  0.0000E+00  0.1920E+03
      6.481  0.0000E+00  0.1920E+03
