       N       E                     dE             d eps       ncg     rms          rms(c)
DAV:   1     0.977669143536E+03    0.97767E+03   -0.55484E+04  9984   0.101E+03
DAV:   2    -0.378433274904E+02   -0.10155E+04   -0.98280E+03 14424   0.248E+02
DAV:   3    -0.967194643860E+02   -0.58876E+02   -0.56920E+02 12480   0.598E+01
DAV:   4    -0.979913789486E+02   -0.12719E+01   -0.12642E+01 14136   0.101E+01
DAV:   5    -0.980250576141E+02   -0.33679E-01   -0.33655E-01 15072   0.131E+00    0.417E+01
DAV:   6    -0.952897170609E+02    0.27353E+01   -0.35363E+01 12096   0.218E+01    0.336E+01
DAV:   7    -0.148376639046E+03   -0.53087E+02   -0.54718E+02 15072   0.809E+01    0.595E+01
DAV:   8    -0.122183673382E+03    0.26193E+02   -0.25962E+02 15744   0.440E+01    0.452E+01
DAV:   9    -0.114003181295E+03    0.81805E+01   -0.11006E+02 16296   0.477E+01    0.336E+01
DAV:  10    -0.943943195849E+02    0.19609E+02   -0.14169E+02 14712   0.379E+01    0.162E+01
DAV:  11    -0.926790704618E+02    0.17152E+01   -0.24086E+01 14232   0.169E+01    0.114E+01
DAV:  12    -0.920045076340E+02    0.67456E+00   -0.96512E+00 15624   0.941E+00    0.564E+00
DAV:  13    -0.918811336462E+02    0.12337E+00   -0.76617E-01 13824   0.329E+00    0.444E+00
DAV:  14    -0.918178254168E+02    0.63308E-01   -0.19944E-01 13800   0.168E+00    0.390E+00
DAV:  15    -0.918275817922E+02   -0.97564E-02   -0.87590E-01 13488   0.290E+00    0.313E+00
DAV:  16    -0.917722807366E+02    0.55301E-01   -0.33700E-01 12336   0.199E+00    0.109E+00
DAV:  17    -0.917617094702E+02    0.10571E-01   -0.47133E-02 13848   0.824E-01    0.524E-01
DAV:  18    -0.917600173763E+02    0.16921E-02   -0.12134E-02 12168   0.421E-01    0.508E-01
DAV:  19    -0.917590552836E+02    0.96209E-03   -0.10403E-02 12528   0.370E-01    0.458E-01
DAV:  20    -0.917575027468E+02    0.15525E-02   -0.14896E-02 14400   0.388E-01    0.190E-01
DAV:  21    -0.917572284767E+02    0.27427E-03   -0.14713E-03 12600   0.143E-01    0.118E-01
DAV:  22    -0.917571528403E+02    0.75636E-04   -0.51263E-04 13128   0.810E-02    0.871E-02
DAV:  23    -0.917571424595E+02    0.10381E-04   -0.35421E-04 11616   0.672E-02    0.507E-02
DAV:  24    -0.917571381891E+02    0.42704E-05   -0.63920E-05  7848   0.279E-02
   1 F= -.91757134E+02 E0= -.91752556E+02  d E =-.137351E-01
