  16  16   0   0
  0.5150799E+02  0.5557859E-09  0.5557859E-09  0.3080696E-08  0.5000000E-15
  1.000000000000000E-004
  CAR 
 unknown system                          
      6.49591729    -12.18715441  301     -0.81073666      1.00000000
    -12.187  0.0000E+00  0.0000E+00
    -12.125  0.0000E+00  0.0000E+00
    -12.063  0.0000E+00  0.0000E+00
    -12.000  0.0000E+00  0.0000E+00
    -11.938  0.0000E+00  0.0000E+00
    -11.876  0.0000E+00  0.0000E+00
    -11.813 -0.4412E-28 -0.2748E-29
    -11.751 -0.6076E-26 -0.3812E-27
    -11.689 -0.6899E-24 -0.4334E-25
    -11.627 -0.6440E-22 -0.4054E-23
    -11.564 -0.4942E-20 -0.3118E-21
    -11.502 -0.3118E-18 -0.1973E-19
    -11.440 -0.1616E-16 -0.1026E-17
    -11.378 -0.6882E-15 -0.4388E-16
    -11.315 -0.2331E-13 -0.1495E-14
    -11.253 -0.6671E-12 -0.4304E-13
    -11.191 -0.1565E-10 -0.1018E-11
    -11.128 -0.3008E-09 -0.1975E-10
    -11.066 -0.4734E-08 -0.3146E-09
    -11.004 -0.6092E-07 -0.4109E-08
    -10.942 -0.6401E-06 -0.4397E-07
    -10.879 -0.5480E-05 -0.3853E-06
    -10.817 -0.3811E-04 -0.2759E-05
    -10.755 -0.2144E-03 -0.1611E-04
    -10.693 -0.9688E-03 -0.7644E-04
    -10.630 -0.3480E-02 -0.2931E-03
    -10.568 -0.9740E-02 -0.8997E-03
    -10.506 -0.2038E-01 -0.2169E-02
    -10.443 -0.2838E-01 -0.3936E-02
    -10.381 -0.1236E-01 -0.4706E-02
    -10.319  0.5795E-01 -0.1097E-02
    -10.257  0.1982E+00  0.1125E-01
    -10.194  0.3888E+00  0.3546E-01
    -10.132  0.5864E+00  0.7198E-01
    -10.070  0.7558E+00  0.1190E+00
    -10.007  0.8777E+00  0.1737E+00
     -9.945  0.9344E+00  0.2319E+00
     -9.883  0.9134E+00  0.2888E+00
     -9.821  0.8341E+00  0.3407E+00
     -9.758  0.7576E+00  0.3879E+00
     -9.696  0.7597E+00  0.4352E+00
     -9.634  0.8691E+00  0.4893E+00
     -9.572  0.1020E+01  0.5529E+00
     -9.509  0.1095E+01  0.6210E+00
     -9.447  0.1043E+01  0.6860E+00
     -9.385  0.9187E+00  0.7432E+00
     -9.322  0.8073E+00  0.7935E+00
     -9.260  0.7435E+00  0.8398E+00
     -9.198  0.7365E+00  0.8856E+00
     -9.136  0.8237E+00  0.9369E+00
     -9.073  0.1040E+01  0.1002E+01
     -9.011  0.1339E+01  0.1085E+01
     -8.949  0.1600E+01  0.1185E+01
     -8.886  0.1746E+01  0.1294E+01
     -8.824  0.1806E+01  0.1406E+01
     -8.762  0.1844E+01  0.1521E+01
     -8.700  0.1855E+01  0.1636E+01
     -8.637  0.1801E+01  0.1749E+01
     -8.575  0.1720E+01  0.1856E+01
     -8.513  0.1742E+01  0.1964E+01
     -8.451  0.1971E+01  0.2087E+01
     -8.388  0.2356E+01  0.2234E+01
     -8.326  0.2680E+01  0.2401E+01
     -8.264  0.2741E+01  0.2571E+01
     -8.201  0.2540E+01  0.2729E+01
     -8.139  0.2270E+01  0.2871E+01
     -8.077  0.2101E+01  0.3002E+01
     -8.015  0.2061E+01  0.3130E+01
     -7.952  0.2168E+01  0.3265E+01
     -7.890  0.2559E+01  0.3424E+01
     -7.828  0.3357E+01  0.3633E+01
     -7.765  0.4413E+01  0.3908E+01
     -7.703  0.5340E+01  0.4241E+01
     -7.641  0.5908E+01  0.4609E+01
     -7.579  0.6329E+01  0.5003E+01
     -7.516  0.7012E+01  0.5440E+01
     -7.454  0.8135E+01  0.5946E+01
     -7.392  0.9596E+01  0.6544E+01
     -7.330  0.1121E+02  0.7242E+01
     -7.267  0.1273E+02  0.8035E+01
     -7.205  0.1380E+02  0.8894E+01
     -7.143  0.1406E+02  0.9770E+01
     -7.080  0.1351E+02  0.1061E+02
     -7.018  0.1261E+02  0.1140E+02
     -6.956  0.1211E+02  0.1215E+02
     -6.894  0.1269E+02  0.1294E+02
     -6.831  0.1454E+02  0.1385E+02
     -6.769  0.1723E+02  0.1492E+02
     -6.707  0.2002E+02  0.1617E+02
     -6.645  0.2232E+02  0.1756E+02
     -6.582  0.2387E+02  0.1904E+02
     -6.520  0.2457E+02  0.2057E+02
     -6.458  0.2436E+02  0.2209E+02
     -6.395  0.2347E+02  0.2355E+02
     -6.333  0.2254E+02  0.2496E+02
     -6.271  0.2207E+02  0.2633E+02
     -6.209  0.2189E+02  0.2769E+02
     -6.146  0.2130E+02  0.2902E+02
     -6.084  0.1980E+02  0.3025E+02
     -6.022  0.1762E+02  0.3135E+02
     -5.959  0.1555E+02  0.3232E+02
     -5.897  0.1436E+02  0.3321E+02
     -5.835  0.1441E+02  0.3411E+02
     -5.773  0.1553E+02  0.3508E+02
     -5.710  0.1728E+02  0.3615E+02
     -5.648  0.1904E+02  0.3734E+02
     -5.586  0.2023E+02  0.3860E+02
     -5.524  0.2058E+02  0.3988E+02
     -5.461  0.2017E+02  0.4114E+02
     -5.399  0.1941E+02  0.4235E+02
     -5.337  0.1885E+02  0.4352E+02
     -5.274  0.1887E+02  0.4469E+02
     -5.212  0.1943E+02  0.4590E+02
     -5.150  0.2013E+02  0.4716E+02
     -5.088  0.2063E+02  0.4844E+02
     -5.025  0.2086E+02  0.4974E+02
     -4.963  0.2096E+02  0.5105E+02
     -4.901  0.2111E+02  0.5236E+02
     -4.838  0.2149E+02  0.5370E+02
     -4.776  0.2226E+02  0.5509E+02
     -4.714  0.2357E+02  0.5656E+02
     -4.652  0.2538E+02  0.5814E+02
     -4.589  0.2728E+02  0.5984E+02
     -4.527  0.2844E+02  0.6161E+02
     -4.465  0.2825E+02  0.6337E+02
     -4.403  0.2701E+02  0.6505E+02
     -4.340  0.2599E+02  0.6667E+02
     -4.278  0.2642E+02  0.6831E+02
     -4.216  0.2838E+02  0.7008E+02
     -4.153  0.3080E+02  0.7200E+02
     -4.091  0.3249E+02  0.7402E+02
     -4.029  0.3310E+02  0.7608E+02
     -3.967  0.3309E+02  0.7814E+02
     -3.904  0.3310E+02  0.8021E+02
     -3.842  0.3342E+02  0.8229E+02
     -3.780  0.3393E+02  0.8440E+02
     -3.717  0.3428E+02  0.8653E+02
     -3.655  0.3396E+02  0.8865E+02
     -3.593  0.3250E+02  0.9067E+02
     -3.531  0.2979E+02  0.9253E+02
     -3.468  0.2632E+02  0.9417E+02
     -3.406  0.2289E+02  0.9559E+02
     -3.344  0.2011E+02  0.9685E+02
     -3.282  0.1820E+02  0.9798E+02
     -3.219  0.1722E+02  0.9905E+02
     -3.157  0.1733E+02  0.1001E+03
     -3.095  0.1874E+02  0.1013E+03
     -3.032  0.2138E+02  0.1026E+03
     -2.970  0.2460E+02  0.1042E+03
     -2.908  0.2732E+02  0.1059E+03
     -2.846  0.2857E+02  0.1076E+03
     -2.783  0.2803E+02  0.1094E+03
     -2.721  0.2616E+02  0.1110E+03
     -2.659  0.2393E+02  0.1125E+03
     -2.597  0.2227E+02  0.1139E+03
     -2.534  0.2160E+02  0.1152E+03
     -2.472  0.2183E+02  0.1166E+03
     -2.410  0.2249E+02  0.1180E+03
     -2.347  0.2314E+02  0.1194E+03
     -2.285  0.2346E+02  0.1209E+03
     -2.223  0.2352E+02  0.1224E+03
     -2.161  0.2369E+02  0.1238E+03
     -2.098  0.2432E+02  0.1254E+03
     -2.036  0.2548E+02  0.1269E+03
     -1.974  0.2688E+02  0.1286E+03
     -1.911  0.2799E+02  0.1304E+03
     -1.849  0.2817E+02  0.1321E+03
     -1.787  0.2725E+02  0.1338E+03
     -1.725  0.2575E+02  0.1354E+03
     -1.662  0.2438E+02  0.1369E+03
     -1.600  0.2343E+02  0.1384E+03
     -1.538  0.2269E+02  0.1398E+03
     -1.476  0.2209E+02  0.1412E+03
     -1.413  0.2197E+02  0.1426E+03
     -1.351  0.2269E+02  0.1440E+03
     -1.289  0.2411E+02  0.1455E+03
     -1.226  0.2576E+02  0.1471E+03
     -1.164  0.2740E+02  0.1488E+03
     -1.102  0.2911E+02  0.1506E+03
     -1.040  0.3086E+02  0.1525E+03
     -0.977  0.3232E+02  0.1545E+03
     -0.915  0.3312E+02  0.1566E+03
     -0.853  0.3306E+02  0.1586E+03
     -0.790  0.3195E+02  0.1606E+03
     -0.728  0.2962E+02  0.1625E+03
     -0.666  0.2632E+02  0.1641E+03
     -0.604  0.2281E+02  0.1655E+03
     -0.541  0.1974E+02  0.1668E+03
     -0.479  0.1706E+02  0.1678E+03
     -0.417  0.1445E+02  0.1687E+03
     -0.355  0.1182E+02  0.1695E+03
     -0.292  0.9478E+01  0.1701E+03
     -0.230  0.7716E+01  0.1705E+03
     -0.168  0.6638E+01  0.1710E+03
     -0.105  0.6209E+01  0.1713E+03
     -0.043  0.6258E+01  0.1717E+03
      0.019  0.6376E+01  0.1721E+03
      0.081  0.6119E+01  0.1725E+03
      0.144  0.5453E+01  0.1728E+03
      0.206  0.4826E+01  0.1731E+03
      0.268  0.4658E+01  0.1734E+03
      0.331  0.4843E+01  0.1737E+03
      0.393  0.4887E+01  0.1740E+03
      0.455  0.4485E+01  0.1743E+03
      0.517  0.3872E+01  0.1746E+03
      0.580  0.3585E+01  0.1748E+03
      0.642  0.3971E+01  0.1750E+03
      0.704  0.4925E+01  0.1753E+03
      0.766  0.6025E+01  0.1757E+03
      0.829  0.6814E+01  0.1761E+03
      0.891  0.7008E+01  0.1766E+03
      0.953  0.6605E+01  0.1770E+03
      1.016  0.5857E+01  0.1774E+03
      1.078  0.5076E+01  0.1777E+03
      1.140  0.4444E+01  0.1779E+03
      1.202  0.3999E+01  0.1782E+03
      1.265  0.3752E+01  0.1784E+03
      1.327  0.3739E+01  0.1787E+03
      1.389  0.3973E+01  0.1789E+03
      1.451  0.4372E+01  0.1792E+03
      1.514  0.4791E+01  0.1795E+03
      1.576  0.5148E+01  0.1798E+03
      1.638  0.5502E+01  0.1801E+03
      1.701  0.5894E+01  0.1805E+03
      1.763  0.6136E+01  0.1809E+03
      1.825  0.5914E+01  0.1813E+03
      1.887  0.5183E+01  0.1816E+03
      1.950  0.4377E+01  0.1819E+03
      2.012  0.4091E+01  0.1821E+03
      2.074  0.4539E+01  0.1824E+03
      2.137  0.5352E+01  0.1827E+03
      2.199  0.5915E+01  0.1831E+03
      2.261  0.5910E+01  0.1835E+03
      2.323  0.5543E+01  0.1838E+03
      2.386  0.5219E+01  0.1841E+03
      2.448  0.5052E+01  0.1844E+03
      2.510  0.4758E+01  0.1847E+03
      2.572  0.4075E+01  0.1850E+03
      2.635  0.3205E+01  0.1852E+03
      2.697  0.2759E+01  0.1854E+03
      2.759  0.3248E+01  0.1856E+03
      2.822  0.4594E+01  0.1859E+03
      2.884  0.6091E+01  0.1862E+03
      2.946  0.6859E+01  0.1867E+03
      3.008  0.6473E+01  0.1871E+03
      3.071  0.5247E+01  0.1874E+03
      3.133  0.3930E+01  0.1876E+03
      3.195  0.3135E+01  0.1878E+03
      3.258  0.3027E+01  0.1880E+03
      3.320  0.3379E+01  0.1882E+03
      3.382  0.3823E+01  0.1885E+03
      3.444  0.4092E+01  0.1887E+03
      3.507  0.4115E+01  0.1890E+03
      3.569  0.3918E+01  0.1892E+03
      3.631  0.3533E+01  0.1894E+03
      3.693  0.3119E+01  0.1896E+03
      3.756  0.3017E+01  0.1898E+03
      3.818  0.3463E+01  0.1900E+03
      3.880  0.4230E+01  0.1903E+03
      3.943  0.4720E+01  0.1906E+03
      4.005  0.4480E+01  0.1909E+03
      4.067  0.3573E+01  0.1911E+03
      4.129  0.2495E+01  0.1913E+03
      4.192  0.1761E+01  0.1914E+03
      4.254  0.1557E+01  0.1915E+03
      4.316  0.1723E+01  0.1916E+03
      4.379  0.1946E+01  0.1917E+03
      4.441  0.1950E+01  0.1918E+03
      4.503  0.1617E+01  0.1919E+03
      4.565  0.1047E+01  0.1920E+03
      4.628  0.4743E+00  0.1920E+03
      4.690  0.9179E-01  0.1920E+03
      4.752 -0.6557E-01  0.1920E+03
      4.814 -0.8065E-01  0.1920E+03
      4.877 -0.4904E-01  0.1920E+03
      4.939 -0.2101E-01  0.1920E+03
      5.001 -0.6886E-02  0.1920E+03
      5.064 -0.1782E-02  0.1920E+03
      5.126 -0.3699E-03  0.1920E+03
      5.188 -0.6214E-04  0.1920E+03
      5.250 -0.8491E-05  0.1920E+03
      5.313 -0.9472E-06  0.1920E+03
      5.375 -0.8645E-07  0.1920E+03
      5.437 -0.6466E-08  0.1920E+03
      5.499 -0.3968E-09  0.1920E+03
      5.562 -0.2000E-10  0.1920E+03
      5.624 -0.8279E-12  0.1920E+03
      5.686 -0.2823E-13  0.1920E+03
      5.749 -0.6685E-15  0.1920E+03
      5.811  0.0000E+00  0.1920E+03
      5.873  0.0000E+00  0.1920E+03
      5.935  0.0000E+00  0.1920E+03
      5.998  0.0000E+00  0.1920E+03
      6.060  0.0000E+00  0.1920E+03
      6.122  0.0000E+00  0.1920E+03
      6.185  0.0000E+00  0.1920E+03
      6.247  0.0000E+00  0.1920E+03
      6.309  0.0000E+00  0.1920E+03
      6.371  0.0000E+00  0.1920E+03
      6.434  0.0000E+00  0.1920E+03
      6.496  0.0000E+00  0.1920E+03
