   16   16    1    1
  0.5150799E+02  0.5557859E-09  0.5557859E-09  0.3080696E-08  0.5000000E-15
  1.000000000000000E-004
  CAR 
 unknown system                          
    160     52     96
 
  0.6250000E-01  0.6250000E-01  0.0000000E+00  0.2083333E-01
    1      -10.187154   1.000000
    2       -8.916482   1.000000
    3       -7.858293   1.000000
    4       -7.726062   1.000000
    5       -7.458194   1.000000
    6       -7.436293   1.000000
    7       -7.427034   1.000000
    8       -7.308412   1.000000
    9       -7.295869   1.000000
   10       -7.279458   1.000000
   11       -6.836843   1.000000
   12       -6.829161   1.000000
   13       -6.824779   1.000000
   14       -6.801795   1.000000
   15       -6.792661   1.000000
   16       -6.593301   1.000000
   17       -6.540440   1.000000
   18       -6.515116   1.000000
   19       -6.470933   1.000000
   20       -5.798792   1.000000
   21       -5.787919   1.000000
   22       -5.680818   1.000000
   23       -4.926247   1.000000
   24       -4.908596   1.000000
   25       -4.808847   1.000000
   26       -4.673633   1.000000
   27       -4.659696   1.000000
   28       -4.645325   1.000000
   29       -4.607966   1.000000
   30       -4.525372   1.000000
   31       -4.367147   1.000000
   32       -4.321295   1.000000
   33       -4.208054   1.000000
   34       -4.200067   1.000000
   35       -4.065729   1.000000
   36       -4.035515   1.000000
   37       -3.996572   1.000000
   38       -3.983018   1.000000
   39       -3.949097   1.000000
   40       -3.842423   1.000000
   41       -3.694836   1.000000
   42       -3.661033   1.000000
   43       -3.497957   1.000000
   44       -3.465234   1.000000
   45       -3.387954   1.000000
   46       -3.190032   1.000000
   47       -3.119423   1.000000
   48       -2.948360   1.000000
   49       -2.887978   1.000000
   50       -2.817499   1.000000
   51       -2.711713   1.000000
   52       -2.356636   1.000000
   53       -2.342474   1.000000
   54       -2.132110   1.000000
   55       -2.106611   1.000000
   56       -1.866920   1.000000
   57       -1.806943   1.000000
   58       -1.698182   1.000000
   59       -1.654904   1.000000
   60       -1.586569   1.000000
   61       -1.529227   1.000002
   62       -1.480549   1.000012
   63       -1.308382   1.001220
   64       -1.177239   1.013213
   65       -1.134108   1.022288
   66       -1.093627   1.031232
   67       -1.060300   1.035378
   68       -0.997264   1.016650
   69       -0.943912   0.947392
   70       -0.896177   0.827538
   71       -0.817578   0.528928
   72       -0.782507   0.381859
   73       -0.771246   0.336461
   74       -0.738384   0.214930
   75       -0.702671   0.108561
   76       -0.698927   0.099209
   77       -0.661514   0.025052
   78       -0.529158  -0.031480
   79       -0.522068  -0.030086
   80       -0.490885  -0.023100
   81       -0.352639  -0.002804
   82       -0.201709  -0.000072
   83       -0.076499  -0.000001
   84       -0.001294  -0.000000
   85        0.032745  -0.000000
   86        0.081070  -0.000000
   87        0.326224  -0.000000
   88        0.450279  -0.000000
   89        1.201469  -0.000000
   90        1.490301  -0.000000
   91        1.630592  -0.000000
   92        1.633811  -0.000000
   93        1.734305  -0.000000
   94        1.809744  -0.000000
   95        2.580221  -0.000000
   96        2.592783  -0.000000
 
 -0.6250000E-01  0.1040834E-16  0.0000000E+00  0.1041667E-01
    1      -10.187152   1.000000
    2       -8.916481   1.000000
    3       -7.858293   1.000000
    4       -7.726055   1.000000
    5       -7.458879   1.000000
    6       -7.432484   1.000000
    7       -7.430109   1.000000
    8       -7.307632   1.000000
    9       -7.296742   1.000000
   10       -7.279381   1.000000
   11       -6.837071   1.000000
   12       -6.831249   1.000000
   13       -6.822170   1.000000
   14       -6.803005   1.000000
   15       -6.791498   1.000000
   16       -6.594842   1.000000
   17       -6.543150   1.000000
   18       -6.507001   1.000000
   19       -6.475111   1.000000
   20       -5.797268   1.000000
   21       -5.789208   1.000000
   22       -5.681077   1.000000
   23       -4.920014   1.000000
   24       -4.914342   1.000000
   25       -4.808887   1.000000
   26       -4.681633   1.000000
   27       -4.653709   1.000000
   28       -4.643976   1.000000
   29       -4.608172   1.000000
   30       -4.524832   1.000000
   31       -4.367165   1.000000
   32       -4.321292   1.000000
   33       -4.210410   1.000000
   34       -4.198181   1.000000
   35       -4.064045   1.000000
   36       -4.037492   1.000000
   37       -3.990453   1.000000
   38       -3.985789   1.000000
   39       -3.952112   1.000000
   40       -3.840388   1.000000
   41       -3.695354   1.000000
   42       -3.661420   1.000000
   43       -3.502105   1.000000
   44       -3.462712   1.000000
   45       -3.387892   1.000000
   46       -3.165986   1.000000
   47       -3.149352   1.000000
   48       -2.931178   1.000000
   49       -2.917889   1.000000
   50       -2.773552   1.000000
   51       -2.736784   1.000000
   52       -2.351477   1.000000
   53       -2.349047   1.000000
   54       -2.119285   1.000000
   55       -2.111531   1.000000
   56       -1.841190   1.000000
   57       -1.837908   1.000000
   58       -1.683635   1.000000
   59       -1.656667   1.000000
   60       -1.580258   1.000000
   61       -1.562639   1.000001
   62       -1.503221   1.000006
   63       -1.275495   1.002453
   64       -1.151537   1.018373
   65       -1.115052   1.026680
   66       -1.104086   1.029106
   67       -1.032221   1.032984
   68       -1.019104   1.028942
   69       -0.998497   1.017555
   70       -0.903880   0.850692
   71       -0.807880   0.487913
   72       -0.789664   0.411378
   73       -0.752294   0.264026
   74       -0.735617   0.205635
   75       -0.702109   0.107134
   76       -0.693820   0.087024
   77       -0.670411   0.039559
   78       -0.529631  -0.031568
   79       -0.513342  -0.028228
   80       -0.490286  -0.022962
   81       -0.339425  -0.002146
   82       -0.200574  -0.000070
   83       -0.101625  -0.000003
   84       -0.018314  -0.000000
   85        0.034335  -0.000000
   86        0.088705  -0.000000
   87        0.374942  -0.000000
   88        0.414962  -0.000000
   89        1.200324  -0.000000
   90        1.492283  -0.000000
   91        1.619131  -0.000000
   92        1.642612  -0.000000
   93        1.770322  -0.000000
   94        1.775225  -0.000000
   95        2.586197  -0.000000
   96        2.587855  -0.000000
 
  0.1875000E+00  0.6250000E-01  0.0000000E+00  0.2083333E-01
    1       -9.983156   1.000000
    2       -8.714929   1.000000
    3       -7.654185   1.000000
    4       -7.531024   1.000000
    5       -7.439980   1.000000
    6       -7.361590   1.000000
    7       -7.243938   1.000000
    8       -7.224895   1.000000
    9       -7.176908   1.000000
   10       -7.108953   1.000000
   11       -6.751818   1.000000
   12       -6.730185   1.000000
   13       -6.718553   1.000000
   14       -6.712694   1.000000
   15       -6.651771   1.000000
   16       -6.484736   1.000000
   17       -6.420614   1.000000
   18       -6.364227   1.000000
   19       -6.296618   1.000000
   20       -5.734827   1.000000
   21       -5.728967   1.000000
   22       -5.627633   1.000000
   23       -4.961146   1.000000
   24       -4.909771   1.000000
   25       -4.847306   1.000000
   26       -4.728688   1.000000
   27       -4.665409   1.000000
   28       -4.588543   1.000000
   29       -4.576209   1.000000
   30       -4.538954   1.000000
   31       -4.475592   1.000000
   32       -4.208328   1.000000
   33       -4.172039   1.000000
   34       -4.143093   1.000000
   35       -4.106424   1.000000
   36       -4.030547   1.000000
   37       -4.010115   1.000000
   38       -3.977196   1.000000
   39       -3.928395   1.000000
   40       -3.876441   1.000000
   41       -3.783827   1.000000
   42       -3.654153   1.000000
   43       -3.604165   1.000000
   44       -3.552720   1.000000
   45       -3.518735   1.000000
   46       -3.466510   1.000000
   47       -3.304295   1.000000
   48       -3.130925   1.000000
   49       -2.956016   1.000000
   50       -2.807889   1.000000
   51       -2.693537   1.000000
   52       -2.474647   1.000000
   53       -2.434820   1.000000
   54       -2.283338   1.000000
   55       -2.166922   1.000000
   56       -2.019498   1.000000
   57       -1.998231   1.000000
   58       -1.917624   1.000000
   59       -1.847365   1.000000
   60       -1.813941   1.000000
   61       -1.767037   1.000000
   62       -1.704818   1.000000
   63       -1.611067   1.000000
   64       -1.579620   1.000000
   65       -1.513331   1.000004
   66       -1.435993   1.000045
   67       -1.274291   1.002514
   68       -1.209728   1.008126
   69       -1.140123   1.020912
   70       -1.080567   1.033456
   71       -1.033351   1.033232
   72       -1.017503   1.028291
   73       -0.965048   0.982409
   74       -0.941843   0.943379
   75       -0.877483   0.765748
   76       -0.831976   0.589312
   77       -0.805641   0.478446
   78       -0.758211   0.286017
   79       -0.726105   0.174974
   80       -0.643873   0.001686
   81       -0.542840  -0.033731
   82       -0.452001  -0.014676
   83       -0.405478  -0.007337
   84       -0.297874  -0.000865
   85       -0.184982  -0.000045
   86        0.185463  -0.000000
   87        0.271035  -0.000000
   88        0.811159  -0.000000
   89        0.846539  -0.000000
   90        1.099290  -0.000000
   91        1.286471  -0.000000
   92        1.621201  -0.000000
   93        2.142217  -0.000000
   94        2.522792  -0.000000
   95        3.012836  -0.000000
   96        3.366861  -0.000000
 
  0.1250000E+00  0.1875000E+00  0.0000000E+00  0.2083333E-01
    1       -9.983178   1.000000
    2       -8.714930   1.000000
    3       -7.654200   1.000000
    4       -7.531019   1.000000
    5       -7.439895   1.000000
    6       -7.362201   1.000000
    7       -7.243867   1.000000
    8       -7.225616   1.000000
    9       -7.176324   1.000000
   10       -7.108676   1.000000
   11       -6.751356   1.000000
   12       -6.727435   1.000000
   13       -6.718283   1.000000
   14       -6.716614   1.000000
   15       -6.651783   1.000000
   16       -6.476642   1.000000
   17       -6.426341   1.000000
   18       -6.371650   1.000000
   19       -6.290482   1.000000
   20       -5.742764   1.000000
   21       -5.722965   1.000000
   22       -5.625516   1.000000
   23       -4.971110   1.000000
   24       -4.900028   1.000000
   25       -4.849295   1.000000
   26       -4.716938   1.000000
   27       -4.669722   1.000000
   28       -4.586600   1.000000
   29       -4.578894   1.000000
   30       -4.546197   1.000000
   31       -4.472588   1.000000
   32       -4.203302   1.000000
   33       -4.173077   1.000000
   34       -4.149001   1.000000
   35       -4.103787   1.000000
   36       -4.040566   1.000000
   37       -4.017817   1.000000
   38       -3.979878   1.000000
   39       -3.916969   1.000000
   40       -3.873026   1.000000
   41       -3.776820   1.000000
   42       -3.647746   1.000000
   43       -3.626896   1.000000
   44       -3.541941   1.000000
   45       -3.509271   1.000000
   46       -3.471588   1.000000
   47       -3.302420   1.000000
   48       -3.108215   1.000000
   49       -2.979860   1.000000
   50       -2.828915   1.000000
   51       -2.668117   1.000000
   52       -2.480501   1.000000
   53       -2.426031   1.000000
   54       -2.336267   1.000000
   55       -2.132178   1.000000
   56       -2.037615   1.000000
   57       -1.979411   1.000000
   58       -1.933370   1.000000
   59       -1.846367   1.000000
   60       -1.798260   1.000000
   61       -1.714646   1.000000
   62       -1.702248   1.000000
   63       -1.643276   1.000000
   64       -1.551653   1.000001
   65       -1.534457   1.000002
   66       -1.435429   1.000046
   67       -1.286090   1.001973
   68       -1.220564   1.006799
   69       -1.155706   1.017478
   70       -1.093943   1.031171
   71       -1.050816   1.035363
   72       -0.987589   1.008576
   73       -0.960901   0.976375
   74       -0.922138   0.899787
   75       -0.851990   0.670505
   76       -0.842869   0.634035
   77       -0.824116   0.556475
   78       -0.777001   0.359482
   79       -0.695652   0.091319
   80       -0.647350   0.005747
   81       -0.585939  -0.033671
   82       -0.465736  -0.017471
   83       -0.358388  -0.003140
   84       -0.291201  -0.000740
   85       -0.187240  -0.000048
   86        0.183927  -0.000000
   87        0.263150  -0.000000
   88        0.814824  -0.000000
   89        0.847678  -0.000000
   90        1.098042  -0.000000
   91        1.284370  -0.000000
   92        1.622601  -0.000000
   93        2.140864  -0.000000
   94        2.523430  -0.000000
   95        3.012989  -0.000000
   96        3.368117  -0.000000
 
 -0.6250000E-01  0.1250000E+00  0.0000000E+00  0.2083333E-01
    1       -9.983165   1.000000
    2       -8.714930   1.000000
    3       -7.654190   1.000000
    4       -7.531002   1.000000
    5       -7.440008   1.000000
    6       -7.361836   1.000000
    7       -7.244015   1.000000
    8       -7.225183   1.000000
    9       -7.176414   1.000000
   10       -7.108935   1.000000
   11       -6.751550   1.000000
   12       -6.727639   1.000000
   13       -6.722634   1.000000
   14       -6.710708   1.000000
   15       -6.653219   1.000000
   16       -6.481612   1.000000
   17       -6.418528   1.000000
   18       -6.372763   1.000000
   19       -6.292294   1.000000
   20       -5.740469   1.000000
   21       -5.724139   1.000000
   22       -5.626756   1.000000
   23       -4.967501   1.000000
   24       -4.903666   1.000000
   25       -4.848255   1.000000
   26       -4.719939   1.000000
   27       -4.669490   1.000000
   28       -4.591444   1.000000
   29       -4.576304   1.000000
   30       -4.540549   1.000000
   31       -4.474905   1.000000
   32       -4.207263   1.000000
   33       -4.172177   1.000000
   34       -4.140534   1.000000
   35       -4.110076   1.000000
   36       -4.035678   1.000000
   37       -4.005275   1.000000
   38       -3.984491   1.000000
   39       -3.925362   1.000000
   40       -3.873342   1.000000
   41       -3.781902   1.000000
   42       -3.644879   1.000000
   43       -3.618698   1.000000
   44       -3.545174   1.000000
   45       -3.518057   1.000000
   46       -3.475197   1.000000
   47       -3.284638   1.000000
   48       -3.145022   1.000000
   49       -2.948514   1.000000
   50       -2.825776   1.000000
   51       -2.680773   1.000000
   52       -2.471891   1.000000
   53       -2.437690   1.000000
   54       -2.306050   1.000000
   55       -2.152400   1.000000
   56       -2.020107   1.000000
   57       -2.000324   1.000000
   58       -1.891880   1.000000
   59       -1.872486   1.000000
   60       -1.808860   1.000000
   61       -1.755057   1.000000
   62       -1.691425   1.000000
   63       -1.637463   1.000000
   64       -1.560391   1.000001
   65       -1.516580   1.000004
   66       -1.445658   1.000034
   67       -1.273740   1.002542
   68       -1.198750   1.009656
   69       -1.153850   1.017874
   70       -1.070054   1.034738
   71       -1.051981   1.035404
   72       -1.022887   1.030337
   73       -0.958594   0.972845
   74       -0.948384   0.955699
   75       -0.856871   0.689571
   76       -0.833852   0.597088
   77       -0.797484   0.444060
   78       -0.761673   0.299158
   79       -0.738240   0.214441
   80       -0.635678  -0.006882
   81       -0.560470  -0.035353
   82       -0.478016  -0.020159
   83       -0.364604  -0.003540
   84       -0.299818  -0.000904
   85       -0.177989  -0.000036
   86        0.181907  -0.000000
   87        0.262364  -0.000000
   88        0.818375  -0.000000
   89        0.844359  -0.000000
   90        1.100163  -0.000000
   91        1.284611  -0.000000
   92        1.621785  -0.000000
   93        2.140968  -0.000000
   94        2.523305  -0.000000
   95        3.012954  -0.000000
   96        3.366906  -0.000000
 
  0.3125000E+00  0.6250000E-01  0.0000000E+00  0.2083333E-01
    1       -9.529472   1.000000
    2       -8.278985   1.000000
    3       -7.538915   1.000000
    4       -7.228834   1.000000
    5       -7.119886   1.000000
    6       -7.110715   1.000000
    7       -7.100317   1.000000
    8       -6.904885   1.000000
    9       -6.876706   1.000000
   10       -6.799393   1.000000
   11       -6.670467   1.000000
   12       -6.508820   1.000000
   13       -6.492373   1.000000
   14       -6.451799   1.000000
   15       -6.343154   1.000000
   16       -6.282633   1.000000
   17       -6.127814   1.000000
   18       -6.024787   1.000000
   19       -5.927061   1.000000
   20       -5.601301   1.000000
   21       -5.581161   1.000000
   22       -5.516789   1.000000
   23       -5.097042   1.000000
   24       -5.045230   1.000000
   25       -4.951076   1.000000
   26       -4.853408   1.000000
   27       -4.791612   1.000000
   28       -4.725067   1.000000
   29       -4.530495   1.000000
   30       -4.479937   1.000000
   31       -4.423950   1.000000
   32       -4.290875   1.000000
   33       -4.258309   1.000000
   34       -4.226707   1.000000
   35       -4.140678   1.000000
   36       -4.078701   1.000000
   37       -4.017300   1.000000
   38       -3.932113   1.000000
   39       -3.889144   1.000000
   40       -3.867162   1.000000
   41       -3.831463   1.000000
   42       -3.817997   1.000000
   43       -3.791621   1.000000
   44       -3.770811   1.000000
   45       -3.660126   1.000000
   46       -3.541334   1.000000
   47       -3.437399   1.000000
   48       -3.228583   1.000000
   49       -3.053807   1.000000
   50       -3.004043   1.000000
   51       -2.874095   1.000000
   52       -2.801290   1.000000
   53       -2.733028   1.000000
   54       -2.681726   1.000000
   55       -2.602274   1.000000
   56       -2.583105   1.000000
   57       -2.512040   1.000000
   58       -2.464799   1.000000
   59       -2.408407   1.000000
   60       -2.323972   1.000000
   61       -2.223947   1.000000
   62       -2.145139   1.000000
   63       -1.956712   1.000000
   64       -1.929358   1.000000
   65       -1.892060   1.000000
   66       -1.800037   1.000000
   67       -1.675639   1.000000
   68       -1.604047   1.000000
   69       -1.584011   1.000000
   70       -1.521730   1.000003
   71       -1.473240   1.000015
   72       -1.394112   1.000148
   73       -1.280294   1.002224
   74       -1.230839   1.005701
   75       -1.151864   1.018302
   76       -1.109914   1.027835
   77       -1.073385   1.034391
   78       -0.986218   1.007287
   79       -0.893901   0.820429
   80       -0.831751   0.588378
   81       -0.789513   0.410751
   82       -0.719920   0.156153
   83       -0.620194  -0.019498
   84       -0.503541  -0.026023
   85       -0.497557  -0.024644
   86        0.309313  -0.000000
   87        0.369852  -0.000000
   88        0.545384  -0.000000
   89        0.936674  -0.000000
   90        1.711890  -0.000000
   91        1.893605  -0.000000
   92        1.913421  -0.000000
   93        2.304887  -0.000000
   94        2.665169  -0.000000
   95        3.232702  -0.000000
   96        3.913266  -0.000000
 
  0.2500000E+00  0.3125000E+00  0.0000000E+00  0.2083333E-01
    1       -9.529544   1.000000
    2       -8.278997   1.000000
    3       -7.538998   1.000000
    4       -7.229053   1.000000
    5       -7.122151   1.000000
    6       -7.109303   1.000000
    7       -7.100717   1.000000
    8       -6.906367   1.000000
    9       -6.874894   1.000000
   10       -6.799095   1.000000
   11       -6.670432   1.000000
   12       -6.510003   1.000000
   13       -6.490552   1.000000
   14       -6.451642   1.000000
   15       -6.339784   1.000000
   16       -6.284983   1.000000
   17       -6.124869   1.000000
   18       -6.037336   1.000000
   19       -5.916214   1.000000
   20       -5.616234   1.000000
   21       -5.573193   1.000000
   22       -5.509751   1.000000
   23       -5.102707   1.000000
   24       -5.047047   1.000000
   25       -4.946000   1.000000
   26       -4.845536   1.000000
   27       -4.799142   1.000000
   28       -4.720523   1.000000
   29       -4.524557   1.000000
   30       -4.481531   1.000000
   31       -4.431563   1.000000
   32       -4.284669   1.000000
   33       -4.268236   1.000000
   34       -4.244804   1.000000
   35       -4.132435   1.000000
   36       -4.079525   1.000000
   37       -4.002473   1.000000
   38       -3.938661   1.000000
   39       -3.904693   1.000000
   40       -3.863533   1.000000
   41       -3.823427   1.000000
   42       -3.816888   1.000000
   43       -3.788083   1.000000
   44       -3.775309   1.000000
   45       -3.632557   1.000000
   46       -3.530783   1.000000
   47       -3.456675   1.000000
   48       -3.226718   1.000000
   49       -3.076813   1.000000
   50       -3.000507   1.000000
   51       -2.889352   1.000000
   52       -2.782789   1.000000
   53       -2.735095   1.000000
   54       -2.679030   1.000000
   55       -2.599629   1.000000
   56       -2.588269   1.000000
   57       -2.531066   1.000000
   58       -2.476768   1.000000
   59       -2.390840   1.000000
   60       -2.324771   1.000000
   61       -2.184714   1.000000
   62       -2.102071   1.000000
   63       -2.059792   1.000000
   64       -1.895470   1.000000
   65       -1.852412   1.000000
   66       -1.818366   1.000000
   67       -1.715532   1.000000
   68       -1.599518   1.000000
   69       -1.546586   1.000001
   70       -1.524023   1.000003
   71       -1.459971   1.000022
   72       -1.388031   1.000174
   73       -1.277038   1.002378
   74       -1.265427   1.002999
   75       -1.198263   1.009728
   76       -1.114641   1.026773
   77       -1.018386   1.028654
   78       -0.981066   1.002106
   79       -0.915723   0.883482
   80       -0.811691   0.504037
   81       -0.753656   0.269033
   82       -0.731459   0.191981
   83       -0.655253   0.015957
   84       -0.545760  -0.034114
   85       -0.454650  -0.015195
   86        0.309827  -0.000000
   87        0.371355  -0.000000
   88        0.542274  -0.000000
   89        0.938485  -0.000000
   90        1.694173  -0.000000
   91        1.909770  -0.000000
   92        1.931273  -0.000000
   93        2.287228  -0.000000
   94        2.663679  -0.000000
   95        3.235829  -0.000000
   96        3.913482  -0.000000
 
 -0.6250000E-01  0.2500000E+00  0.0000000E+00  0.2083333E-01
    1       -9.529522   1.000000
    2       -8.278999   1.000000
    3       -7.538980   1.000000
    4       -7.229005   1.000000
    5       -7.121860   1.000000
    6       -7.109812   1.000000
    7       -7.100351   1.000000
    8       -6.906064   1.000000
    9       -6.874917   1.000000
   10       -6.798944   1.000000
   11       -6.670268   1.000000
   12       -6.508937   1.000000
   13       -6.493382   1.000000
   14       -6.450088   1.000000
   15       -6.345202   1.000000
   16       -6.279231   1.000000
   17       -6.124835   1.000000
   18       -6.038735   1.000000
   19       -5.915744   1.000000
   20       -5.616520   1.000000
   21       -5.572870   1.000000
   22       -5.510198   1.000000
   23       -5.104455   1.000000
   24       -5.044374   1.000000
   25       -4.946716   1.000000
   26       -4.846154   1.000000
   27       -4.797826   1.000000
   28       -4.720375   1.000000
   29       -4.526300   1.000000
   30       -4.486175   1.000000
   31       -4.427128   1.000000
   32       -4.289673   1.000000
   33       -4.264670   1.000000
   34       -4.237353   1.000000
   35       -4.134778   1.000000
   36       -4.078978   1.000000
   37       -4.007658   1.000000
   38       -3.926777   1.000000
   39       -3.901808   1.000000
   40       -3.873760   1.000000
   41       -3.832567   1.000000
   42       -3.807524   1.000000
   43       -3.786705   1.000000
   44       -3.777093   1.000000
   45       -3.635903   1.000000
   46       -3.535630   1.000000
   47       -3.457307   1.000000
   48       -3.225352   1.000000
   49       -3.066904   1.000000
   50       -2.998500   1.000000
   51       -2.891638   1.000000
   52       -2.794672   1.000000
   53       -2.720455   1.000000
   54       -2.689527   1.000000
   55       -2.601188   1.000000
   56       -2.582307   1.000000
   57       -2.519126   1.000000
   58       -2.475069   1.000000
   59       -2.378554   1.000000
   60       -2.344921   1.000000
   61       -2.196688   1.000000
   62       -2.121738   1.000000
   63       -2.023870   1.000000
   64       -1.911904   1.000000
   65       -1.867177   1.000000
   66       -1.820347   1.000000
   67       -1.685371   1.000000
   68       -1.612063   1.000000
   69       -1.558427   1.000001
   70       -1.510563   1.000004
   71       -1.475157   1.000014
   72       -1.356557   1.000392
   73       -1.273027   1.002579
   74       -1.263091   1.003139
   75       -1.210421   1.008035
   76       -1.122580   1.024953
   77       -1.027499   1.031781
   78       -0.979047   0.999927
   79       -0.915991   0.884183
   80       -0.809875   0.496354
   81       -0.758764   0.288104
   82       -0.724354   0.169555
   83       -0.640014  -0.002520
   84       -0.555113  -0.035050
   85       -0.456793  -0.015622
   86        0.309762  -0.000000
   87        0.370393  -0.000000
   88        0.543336  -0.000000
   89        0.939521  -0.000000
   90        1.694214  -0.000000
   91        1.899412  -0.000000
   92        1.940511  -0.000000
   93        2.286848  -0.000000
   94        2.665109  -0.000000
   95        3.234670  -0.000000
   96        3.913453  -0.000000
 
  0.4375000E+00  0.6250000E-01  0.0000000E+00  0.2083333E-01
    1       -8.890266   1.000000
    2       -7.905316   1.000000
    3       -7.716753   1.000000
    4       -7.141992   1.000000
    5       -6.784042   1.000000
    6       -6.770054   1.000000
    7       -6.603067   1.000000
    8       -6.561484   1.000000
    9       -6.551111   1.000000
   10       -6.539646   1.000000
   11       -6.482344   1.000000
   12       -6.237407   1.000000
   13       -6.179997   1.000000
   14       -6.075844   1.000000
   15       -6.054719   1.000000
   16       -5.984239   1.000000
   17       -5.835568   1.000000
   18       -5.684659   1.000000
   19       -5.549682   1.000000
   20       -5.441689   1.000000
   21       -5.381566   1.000000
   22       -5.347708   1.000000
   23       -5.299663   1.000000
   24       -5.181471   1.000000
   25       -5.050372   1.000000
   26       -5.029021   1.000000
   27       -4.975753   1.000000
   28       -4.774971   1.000000
   29       -4.714828   1.000000
   30       -4.677477   1.000000
   31       -4.651746   1.000000
   32       -4.513609   1.000000
   33       -4.453740   1.000000
   34       -4.403838   1.000000
   35       -4.340423   1.000000
   36       -4.231256   1.000000
   37       -4.140190   1.000000
   38       -4.079965   1.000000
   39       -3.977225   1.000000
   40       -3.906234   1.000000
   41       -3.803571   1.000000
   42       -3.766790   1.000000
   43       -3.723194   1.000000
   44       -3.700302   1.000000
   45       -3.619781   1.000000
   46       -3.591907   1.000000
   47       -3.551179   1.000000
   48       -3.476679   1.000000
   49       -3.368293   1.000000
   50       -3.332181   1.000000
   51       -3.299961   1.000000
   52       -3.222606   1.000000
   53       -3.161890   1.000000
   54       -3.024755   1.000000
   55       -2.974110   1.000000
   56       -2.944942   1.000000
   57       -2.863371   1.000000
   58       -2.766613   1.000000
   59       -2.750612   1.000000
   60       -2.540349   1.000000
   61       -2.451733   1.000000
   62       -2.382125   1.000000
   63       -2.349840   1.000000
   64       -2.284592   1.000000
   65       -2.239033   1.000000
   66       -2.145103   1.000000
   67       -2.054643   1.000000
   68       -1.968942   1.000000
   69       -1.933239   1.000000
   70       -1.884380   1.000000
   71       -1.861922   1.000000
   72       -1.797413   1.000000
   73       -1.655601   1.000000
   74       -1.475031   1.000014
   75       -1.309369   1.001194
   76       -1.236481   1.005160
   77       -1.209291   1.008183
   78       -1.136300   1.021784
   79       -0.938757   0.937198
   80       -0.834372   0.599241
   81       -0.789277   0.409773
   82       -0.771717   0.338326
   83       -0.676040   0.049727
   84       -0.522605  -0.030196
   85       -0.497719  -0.024682
   86       -0.209144  -0.000089
   87        0.685950  -0.000000
   88        1.023096  -0.000000
   89        1.066154  -0.000000
   90        1.806493  -0.000000
   91        1.958521  -0.000000
   92        2.061941  -0.000000
   93        2.477392  -0.000000
   94        3.033817  -0.000000
   95        3.576348  -0.000000
   96        4.005141  -0.000000
 
  0.3750000E+00  0.4375000E+00  0.0000000E+00  0.2083333E-01
    1       -8.890457   1.000000
    2       -7.905620   1.000000
    3       -7.716583   1.000000
    4       -7.141442   1.000000
    5       -6.784725   1.000000
    6       -6.772937   1.000000
    7       -6.610130   1.000000
    8       -6.570107   1.000000
    9       -6.542354   1.000000
   10       -6.529759   1.000000
   11       -6.482260   1.000000
   12       -6.236784   1.000000
   13       -6.180940   1.000000
   14       -6.074102   1.000000
   15       -6.053339   1.000000
   16       -5.985811   1.000000
   17       -5.836957   1.000000
   18       -5.691554   1.000000
   19       -5.536865   1.000000
   20       -5.436540   1.000000