 vasp.5.4.4.18Apr17-6-g9f103f2a35 (build Apr 28 2017 10:53:45) complex          
  
 executed on             LinuxIFC date 2020.02.17  09:19:50
 running on   24 total cores
 distrk:  each k-point on   24 cores,    1 groups
 distr:  one band on NCORES_PER_BAND=   1 cores,   24 groups


--------------------------------------------------------------------------------------------------------


 INCAR:
 POTCAR:    PAW_PBE Au 04Oct2007                  
 POTCAR:    PAW_PBE Pt 04Feb2005                  
 POTCAR:    PAW_PBE Ir 06Sep2000                  

 ----------------------------------------------------------------------------- 
|                                                                             |
|           W    W    AA    RRRRR   N    N  II  N    N   GGGG   !!!           |
|           W    W   A  A   R    R  NN   N  II  NN   N  G    G  !!!           |
|           W    W  A    A  R    R  N N  N  II  N N  N  G       !!!           |
|           W WW W  AAAAAA  RRRRR   N  N N  II  N  N N  G  GGG   !            |
|           WW  WW  A    A  R   R   N   NN  II  N   NN  G    G                |
|           W    W  A    A  R    R  N    N  II  N    N   GGGG   !!!           |
|                                                                             |
|      For optimal performance we recommend to set                            |
|        NCORE= 4 - approx SQRT( number of cores)                             |
|      NCORE specifies how many cores store one orbital (NPAR=cpu/NCORE).     |
|      This setting can  greatly improve the performance of VASP for DFT.     |
|      The default,   NCORE=1            might be grossly inefficient         |
|      on modern multi-core architectures or massively parallel machines.     |
|      Do your own testing !!!!                                               |
|      Unfortunately you need to use the default for GW and RPA calculations. |
|      (for HF NCORE is supported but not extensively tested yet)             |
|                                                                             |
 ----------------------------------------------------------------------------- 

 POTCAR:    PAW_PBE Au 04Oct2007                  
   SHA256 =  d0044ae04e2bdce24051b198fc5c053d722a5bc6fe3c3b100514a13fc5d2db88 Au
   COPYR  = (c) Copyright 04Oct2007 Georg Kresse                                
   COPYR  = This file is part of the software VASP. Any use, copying, and all ot
   COPYR  = If you do not have a valid VASP license, you may not use, copy or di
   VRHFIN =Au: s1d10                                                            
   LEXCH  = PE                                                                  
   EATOM  =   926.0867 eV,   68.0654 Ry                                         
                                                                                
   TITEL  = PAW_PBE Au 04Oct2007                                                
   LULTRA =        F    use ultrasoft PP ?                                      
   IUNSCR =        1    unscreen: 0-lin 1-nonlin 2-no                           
   RPACOR =    2.330    partial core radius                                     
   POMASS =  196.966; ZVAL   =   11.000    mass and valenz                      
   RCORE  =    2.500    outmost cutoff radius                                   
   RWIGS  =    2.840; RWIGS  =    1.503    wigner-seitz radius (au A)           
   ENMAX  =  229.943; ENMIN  =  172.457 eV                                      
   ICORE  =        3    local potential                                         
   LCOR   =        T    correct aug charges                                     
   LPAW   =        T    paw PP                                                  
   EAUG   =  356.670                                                            
   DEXC   =    0.000                                                            
   RMAX   =    2.562    core radius for proj-oper                               
   RAUG   =    1.300    factor for augmentation sphere                          
   RDEP   =    2.598    radius for radial grids                                 
   RDEPT  =    2.193    core radius for aug-charge                              
                                                                                
   Atomic configuration                                                         
   16 entries                                                                   
     n  l   j            E        occ.                                          
     1  0  0.50    -80748.5001   2.0000                                         
     2  0  0.50    -14244.7466   2.0000                                         
     2  1  1.50    -12310.9591   6.0000                                         
     3  0  0.50     -3362.1768   2.0000                                         
     3  1  1.50     -2801.5463   6.0000                                         
     3  2  2.50     -2203.8206  10.0000                                         
     4  0  0.50      -729.8168   2.0000                                         
     4  1  1.50      -546.0527   6.0000                                         
     4  2  2.50      -325.7302  10.0000                                         
     4  3  3.50       -81.1472  14.0000                                         
     5  0  0.50      -108.3201   2.0000                                         
     5  1  1.50       -59.7479   6.0000                                         
     5  2  2.50        -6.8783  10.0000                                         
     6  0  0.50        -5.7602   1.0000                                         
     6  1  1.50        -6.8029   0.0000                                         
     5  3  2.50        -1.3606   0.0000                                         
   Description                                                                  
     l       E           TYP  RCUT    TYP  RCUT                                 
     2     -6.8782861     23  2.500                                             
     2     -8.2388687     23  2.500                                             
     0     -5.7601759     23  2.500                                             
     0     -0.8493231     23  2.500                                             
     1     -2.7211652     23  2.500                                             
     1     27.2116520     23  2.500                                             
     3     -1.3605826     23  2.500                                             
  local pseudopotential read in
  partial core-charges read in
  partial kinetic energy density read in
  atomic valenz-charges read in
  non local Contribution for L=           2  read in
    real space projection operators read in
  non local Contribution for L=           2  read in
    real space projection operators read in
  non local Contribution for L=           0  read in
    real space projection operators read in
  non local Contribution for L=           0  read in
    real space projection operators read in
  non local Contribution for L=           1  read in
    real space projection operators read in
  non local Contribution for L=           1  read in
    real space projection operators read in
    PAW grid and wavefunctions read in
 
   number of l-projection  operators is LMAX  =           6
   number of lm-projection operators is LMMAX =          18
 
 POTCAR:    PAW_PBE Pt 04Feb2005                  
   SHA256 =  3ed90460adef76debcff1cfb73ee1349b515b1a3db03439735b44de3a8db7dc8 Pt
   COPYR  = (c) Copyright 04Feb2005 Georg Kresse                                
   COPYR  = This file is part of the software VASP. Any use, copying, and all ot
   COPYR  = If you do not have a valid VASP license, you may not use, copy or di
   VRHFIN =Pt: s1d9                                                             
   LEXCH  = PE                                                                  
   EATOM  =   729.1176 eV,   53.5886 Ry                                         
                                                                                
   TITEL  = PAW_PBE Pt 04Feb2005                                                
   LULTRA =        F    use ultrasoft PP ?                                      
   IUNSCR =        1    unscreen: 0-lin 1-nonlin 2-no                           
   RPACOR =    2.330    partial core radius                                     
   POMASS =  195.080; ZVAL   =   10.000    mass and valenz                      
   RCORE  =    2.600    outmost cutoff radius                                   
   RWIGS  =    2.750; RWIGS  =    1.455    wigner-seitz radius (au A)           
   ENMAX  =  230.283; ENMIN  =  172.712 eV                                      
   ICORE  =        3    local potential                                         
   LCOR   =        T    correct aug charges                                     
   LPAW   =        T    paw PP                                                  
   EAUG   =  358.966                                                            
   DEXC   =    0.000                                                            
   RMAX   =    2.658    core radius for proj-oper                               
   RAUG   =    1.300    factor for augmentation sphere                          
   RDEP   =    2.761    radius for radial grids                                 
   RDEPT  =    2.203    core radius for aug-charge                              
                                                                                
   Atomic configuration                                                         
   16 entries                                                                   
     n  l   j            E        occ.                                          
     1  0  0.50    -78401.1885   2.0000                                         
     2  0  0.50    -13770.7750   2.0000                                         
     2  1  1.50    -11931.0468   6.0000                                         
     3  0  0.50     -3234.7234   2.0000                                         
     3  1  1.50     -2699.2216   6.0000                                         
     3  2  2.50     -2119.5714  10.0000                                         
     4  0  0.50      -695.1528   2.0000                                         
     4  1  1.50      -519.6034   6.0000                                         
     4  2  2.50      -306.6786  10.0000                                         
     4  3  3.50       -70.1041  14.0000                                         
     5  0  0.50      -101.7747   2.0000                                         
     5  1  1.50       -55.9873   6.0000                                         
     5  2  2.50        -6.1423   9.0000                                         
     6  0  0.50        -5.6573   1.0000                                         
     6  1  1.50        -6.8029   0.0000                                         
     5  3  2.50        -1.3606   0.0000                                         
   Description                                                                  
     l       E           TYP  RCUT    TYP  RCUT                                 
     2     -6.1423404     23  2.500                                             
     2     -7.5029230     23  2.500                                             
     0     -5.6573207     23  2.500                                             
     0      0.7416693     23  2.500                                             
     1     -2.7211652     23  2.600                                             
     1     20.4087390     23  2.600                                             
     3     -1.3605826     23  2.500                                             
  local pseudopotential read in
  partial core-charges read in
  partial kinetic energy density read in
  atomic valenz-charges read in
  non local Contribution for L=           2  read in
    real space projection operators read in
  non local Contribution for L=           2  read in
    real space projection operators read in
  non local Contribution for L=           0  read in
    real space projection operators read in
  non local Contribution for L=           0  read in
    real space projection operators read in
  non local Contribution for L=           1  read in
    real space projection operators read in
  non local Contribution for L=           1  read in
    real space projection operators read in
    PAW grid and wavefunctions read in
 
   number of l-projection  operators is LMAX  =           6
   number of lm-projection operators is LMMAX =          18
 
 POTCAR:    PAW_PBE Ir 06Sep2000                  
   SHA256 =  7c6af8d4d487b237782eb51e6f62977b27a1da78c3c96acd1cebefd6c308f120 Ir
   COPYR  = (c) Copyright 06Sep2000 Georg Kresse                                
   COPYR  = This file is part of the software VASP. Any use, copying, and all ot
   COPYR  = If you do not have a valid VASP license, you may not use, copy or di
   VRHFIN =Ir: s1d8                                                             
   LEXCH  = PE                                                                  
   EATOM  =   560.1833 eV,   41.1723 Ry                                         
                                                                                
   TITEL  = PAW_PBE Ir 06Sep2000                                                
   LULTRA =        F    use ultrasoft PP ?                                      
   IUNSCR =        1    unscreen: 0-lin 1-nonlin 2-no                           
   RPACOR =    2.250    partial core radius                                     
   POMASS =  192.220; ZVAL   =    9.000    mass and valenz                      
   RCORE  =    2.600    outmost cutoff radius                                   
   RWIGS  =    2.690; RWIGS  =    1.423    wigner-seitz radius (au A)           
   ENMAX  =  210.864; ENMIN  =  158.148 eV                                      
   RCLOC  =    1.857    cutoff for local pot                                    
   LCOR   =        T    correct aug charges                                     
   LPAW   =        T    paw PP                                                  
   EAUG   =  318.962                                                            
   DEXC   =    0.000                                                            
   RMAX   =    2.667    core radius for proj-oper                               
   RAUG   =    1.300    factor for augmentation sphere                          
   RDEP   =    2.748    radius for radial grids                                 
   RDEPT  =    2.300    core radius for aug-charge                              
                                                                                
   Atomic configuration                                                         
   16 entries                                                                   
     n  l   j            E        occ.                                          
     1  0  0.50    -76100.0449   2.0000                                         
     2  0  0.50    -13308.1683   2.0000                                         
     2  1  1.50    -11558.0021   6.0000                                         
     3  0  0.50     -3110.7274   2.0000                                         
     3  1  1.50     -2599.2109   6.0000                                         
     3  2  2.50     -2037.1515  10.0000                                         
     4  0  0.50      -661.6001   2.0000                                         
     4  1  1.50      -493.8981   6.0000                                         
     4  2  2.50      -288.1909  10.0000                                         
     4  3  3.50       -59.5718  14.0000                                         
     5  0  0.50       -95.3879   2.0000                                         
     5  1  1.50       -52.2747   6.0000                                         
     5  2  2.50        -5.4180   8.0000                                         
     6  0  0.50        -5.5479   1.0000                                         
     6  1  1.50        -6.8029   0.0000                                         
     5  3  2.50        -1.3606   0.0000                                         
   Description                                                                  
     l       E           TYP  RCUT    TYP  RCUT                                 
     2     -5.4179967     23  2.600                                             
     2     -6.7785793     23  2.600                                             
     0     -5.5478636     23  2.600                                             
     0      2.2542272     23  2.600                                             
     1     -2.7211652     23  2.600                                             
     1     20.4087390     23  2.600                                             
  local pseudopotential read in
  partial core-charges read in
  partial kinetic energy density read in
  atomic valenz-charges read in
  non local Contribution for L=           2  read in
    real space projection operators read in
  non local Contribution for L=           2  read in
    real space projection operators read in
  non local Contribution for L=           0  read in
    real space projection operators read in
  non local Contribution for L=           0  read in
    real space projection operators read in
  non local Contribution for L=           1  read in
    real space projection operators read in
  non local Contribution for L=           1  read in
    real space projection operators read in
    PAW grid and wavefunctions read in
 
   number of l-projection  operators is LMAX  =           6
   number of lm-projection operators is LMMAX =          18
 
  PAW_PBE Au 04Oct2007                  :
 energy of atom  1       EATOM= -926.0867
 kinetic energy error for atom=    0.0152 (will be added to EATOM!!)
  PAW_PBE Pt 04Feb2005                  :
 energy of atom  2       EATOM= -729.1176
 kinetic energy error for atom=    0.0144 (will be added to EATOM!!)
  PAW_PBE Ir 06Sep2000                  :
 energy of atom  3       EATOM= -560.1833
 kinetic energy error for atom=    0.0056 (will be added to EATOM!!)
 
 
 POSCAR: Au Pt Ir                                
  positions in cartesian coordinates
  No initial velocities read in
 exchange correlation table for  LEXCH =        8
   RHO(1)=    0.500       N(1)  =     2000
   RHO(2)=  100.500       N(2)  =     4000
 


--------------------------------------------------------------------------------------------------------


 ion  position               nearest neighbor table
   1  0.000  0.000  0.390-   3 2.78   3 2.78   4 2.78   4 2.78   2 2.78   2 2.78   5 2.82   6 2.82
                             7 2.82
   2  0.500  0.000  0.390-   4 2.78   3 2.78   4 2.78   3 2.78   1 2.78   1 2.78   6 2.82   5 2.82
                             8 2.82
   3  0.000  0.500  0.390-   1 2.78   1 2.78   2 2.78   2 2.78   4 2.78   4 2.78   7 2.82   5 2.82
                             8 2.82
   4  0.500  0.500  0.390-   2 2.78   1 2.78   2 2.78   1 2.78   3 2.78   3 2.78   8 2.82   7 2.82
                             6 2.82
   5  0.167  0.167  0.465-   7 2.78   7 2.78   8 2.78   8 2.78   6 2.78   6 2.78   9 2.80  12 2.80
                            10 2.80   1 2.82   3 2.82   2 2.82
   6  0.667  0.167  0.465-   8 2.78   7 2.78   8 2.78   7 2.78   5 2.78   5 2.78  10 2.80  11 2.80
                             9 2.80   2 2.82   4 2.82   1 2.82
   7  0.167  0.667  0.465-   5 2.78   5 2.78   6 2.78   6 2.78   8 2.78   8 2.78  10 2.80  11 2.80
                            12 2.80   3 2.82   4 2.82   1 2.82
   8  0.667  0.667  0.465-   6 2.78   5 2.78   6 2.78   5 2.78   7 2.78   7 2.78   9 2.80  12 2.80
                            11 2.80   4 2.82   2 2.82   3 2.82
   9  0.833  0.333  0.539-  11 2.78  11 2.78  12 2.78  12 2.78  10 2.78  10 2.78   5 2.80   8 2.80
                             6 2.80  16 2.83  13 2.83  15 2.83
  10  0.333  0.333  0.539-  12 2.78  11 2.78  12 2.78  11 2.78   9 2.78   9 2.78   6 2.80   7 2.80
                             5 2.80  15 2.83  14 2.83  16 2.83
  11  0.833  0.833  0.539-   9 2.78   9 2.78  10 2.78  10 2.78  12 2.78  12 2.78   6 2.80   7 2.80
                             8 2.80  13 2.83  16 2.83  14 2.83
  12  0.333  0.833  0.539-  10 2.78   9 2.78  10 2.78   9 2.78  11 2.78  11 2.78   5 2.80   8 2.80
                             7 2.80  14 2.83  15 2.83  13 2.83
  13  0.000  0.000  0.615-  16 2.78  15 2.78  16 2.78  15 2.78  14 2.78  14 2.78  11 2.83   9 2.83
                            12 2.83
  14  0.500  0.000  0.615-  15 2.78  15 2.78  16 2.78  16 2.78  13 2.78  13 2.78  12 2.83  10 2.83
                            11 2.83
  15  0.500  0.500  0.615-  14 2.78  13 2.78  14 2.78  13 2.78  16 2.78  16 2.78  10 2.83  12 2.83
                             9 2.83
  16  0.000  0.500  0.615-  13 2.78  13 2.78  14 2.78  14 2.78  15 2.78  15 2.78   9 2.83  11 2.83
                            10 2.83
 
  LATTYP: Found a hexagonal cell.
 ALAT       =     5.5578593001
 C/A-ratio  =     5.5429542221
  
  Lattice vectors:
  
 A1 = (   2.7789296501,  -4.8132473446,   0.0000000000)
 A2 = (  -5.5578593001,   0.0000000000,   0.0000000000)
 A3 = (   0.0000000000,   0.0000000000, -30.8069596737)


Analysis of symmetry for initial positions (statically):
=====================================================================
 Subroutine PRICEL returns:
 Original cell was already a primitive cell.
 

 Routine SETGRP: Setting up the symmetry group for a 
 hexagonal supercell.


 Subroutine GETGRP returns: Found  2 space group operations
 (whereof  2 operations were pure point group operations)
 out of a pool of 24 trial point group operations.


The static configuration has the point symmetry C_1h.


Analysis of symmetry for dynamics (positions and initial velocities):
=====================================================================
 Subroutine PRICEL returns:
 Original cell was already a primitive cell.
 

 Routine SETGRP: Setting up the symmetry group for a 
 hexagonal supercell.


 Subroutine GETGRP returns: Found  2 space group operations
 (whereof  2 operations were pure point group operations)
 out of a pool of 24 trial point group operations.


The dynamic configuration has the point symmetry C_1h.


Analysis of constrained symmetry for selective dynamics:
=====================================================================
 Subroutine PRICEL returns:
 Original cell was already a primitive cell.
 

 Routine SETGRP: Setting up the symmetry group for a 
 hexagonal supercell.


 Subroutine GETGRP returns: Found  2 space group operations
 (whereof  2 operations were pure point group operations)
 out of a pool of 24 trial point group operations.


The constrained configuration has the point symmetry C_1h.


 Subroutine INISYM returns: Found  2 space group operations
 (whereof  2 operations are pure point group operations),
 and found     1 'primitive' translations

 
 
 KPOINTS: KPOINTS created by Atomic Simulation Env

Automatic generation of k-mesh.
Space group operators:
 irot       det(A)        alpha          n_x          n_y          n_z        tau_x        tau_y        tau_z
    1     1.000000     0.000001     1.000000     0.000000     0.000000     0.000000     0.000000     0.000000
    2    -1.000000   180.000000    -0.500000    -0.866025     0.000000     0.000000     0.000000     0.000000
 
 Subroutine IBZKPT returns following result:
 ===========================================
 
 Found     52 irreducible k-points:
 
 Following reciprocal coordinates:
            Coordinates               Weight
  0.062500  0.062500  0.000000     32.000000
 -0.062500  0.000000  0.000000     16.000000
  0.187500  0.062500  0.000000     32.000000
  0.125000  0.187500  0.000000     32.000000
 -0.062500  0.125000  0.000000     32.000000
  0.312500  0.062500  0.000000     32.000000
  0.250000  0.312500  0.000000     32.000000
 -0.062500  0.250000  0.000000     32.000000
  0.437500  0.062500  0.000000     32.000000
  0.375000  0.437500  0.000000     32.000000
 -0.062500  0.375000  0.000000     32.000000
 -0.437500  0.062500  0.000000     32.000000
  0.500000 -0.437500  0.000000     32.000000
 -0.062500  0.500000  0.000000     32.000000
 -0.312500  0.062500  0.000000     32.000000
 -0.375000 -0.312500  0.000000     32.000000
 -0.062500 -0.375000  0.000000     32.000000
 -0.187500  0.062500  0.000000     32.000000
 -0.250000 -0.187500  0.000000     32.000000
 -0.062500 -0.250000  0.000000     32.000000
 -0.062500  0.062500  0.000000     32.000000
 -0.062500 -0.125000  0.000000     16.000000
  0.187500  0.187500  0.000000     32.000000
 -0.187500  0.000000  0.000000     16.000000
  0.312500  0.187500  0.000000     32.000000
  0.125000  0.312500  0.000000     32.000000
 -0.187500  0.125000  0.000000     32.000000
  0.437500  0.187500  0.000000     32.000000
  0.250000  0.437500  0.000000     32.000000
 -0.187500  0.250000  0.000000     32.000000
 -0.437500  0.187500  0.000000     32.000000
  0.375000 -0.437500  0.000000     32.000000
 -0.187500  0.375000  0.000000     32.000000
 -0.312500  0.187500  0.000000     32.000000
  0.500000 -0.312500  0.000000     32.000000
 -0.187500  0.500000  0.000000     32.000000
 -0.187500  0.187500  0.000000     32.000000
 -0.187500 -0.375000  0.000000     16.000000
  0.312500  0.312500  0.000000     32.000000
 -0.312500  0.000000  0.000000     16.000000
  0.437500  0.312500  0.000000     32.000000
  0.125000  0.437500  0.000000     32.000000
 -0.312500  0.125000  0.000000     32.000000
 -0.437500  0.312500  0.000000     32.000000
  0.250000 -0.437500  0.000000     32.000000
 -0.312500  0.250000  0.000000     32.000000
 -0.312500  0.312500  0.000000     32.000000
 -0.312500  0.375000  0.000000     16.000000
  0.437500  0.437500  0.000000     32.000000
 -0.437500  0.000000  0.000000     16.000000
 -0.437500  0.437500  0.000000     32.000000
 -0.437500  0.125000  0.000000     16.000000
 
 Following cartesian coordinates:
            Coordinates               Weight
  0.011245  0.006492  0.000000     32.000000
 -0.011245  0.006492  0.000000     16.000000
  0.033736 -0.006492  0.000000     32.000000
  0.022491  0.025970  0.000000     32.000000
 -0.011245  0.032462  0.000000     32.000000
  0.056227 -0.019477  0.000000     32.000000
  0.044981  0.038955  0.000000     32.000000
 -0.011245  0.058432  0.000000     32.000000
  0.078717 -0.032462  0.000000     32.000000
  0.067472  0.051940  0.000000     32.000000
 -0.011245  0.084402  0.000000     32.000000
 -0.078717  0.058432  0.000000     32.000000
  0.089963 -0.142835  0.000000     32.000000
 -0.011245  0.110372  0.000000     32.000000
 -0.056227  0.045447  0.000000     32.000000
 -0.067472 -0.025970  0.000000     32.000000
 -0.011245 -0.071417  0.000000     32.000000
 -0.033736  0.032462  0.000000     32.000000
 -0.044981 -0.012985  0.000000     32.000000
 -0.011245 -0.045447  0.000000     32.000000
 -0.011245  0.019477  0.000000     32.000000
 -0.011245 -0.019477  0.000000     16.000000
  0.033736  0.019477  0.000000     32.000000
 -0.033736  0.019477  0.000000     16.000000
  0.056227  0.006492  0.000000     32.000000
  0.022491  0.051940  0.000000     32.000000
 -0.033736  0.045447  0.000000     32.000000
  0.078717 -0.006492  0.000000     32.000000
  0.044981  0.064925  0.000000     32.000000
 -0.033736  0.071417  0.000000     32.000000
 -0.078717  0.084402  0.000000     32.000000
  0.067472 -0.129850  0.000000     32.000000
 -0.033736  0.097387  0.000000     32.000000
 -0.056227  0.071417  0.000000     32.000000
  0.089963 -0.116865  0.000000     32.000000
 -0.033736  0.123357  0.000000     32.000000
 -0.033736  0.058432  0.000000     32.000000
 -0.033736 -0.058432  0.000000     16.000000
  0.056227  0.032462  0.000000     32.000000
 -0.056227  0.032462  0.000000     16.000000
  0.078717  0.019477  0.000000     32.000000
  0.022491  0.077910  0.000000     32.000000
 -0.056227  0.058432  0.000000     32.000000
 -0.078717  0.110372  0.000000     32.000000
  0.044981 -0.116865  0.000000     32.000000
 -0.056227  0.084402  0.000000     32.000000
 -0.056227  0.097387  0.000000     32.000000
 -0.056227  0.110372  0.000000     16.000000
  0.078717  0.045447  0.000000     32.000000
 -0.078717  0.045447  0.000000     16.000000
 -0.078717  0.136342  0.000000     32.000000
 -0.078717  0.071417  0.000000     16.000000
 


--------------------------------------------------------------------------------------------------------




 Dimension of arrays:
   k-points           NKPTS =     52   k-points in BZ     NKDIM =     52   number of bands    NBANDS=     96
   number of dos      NEDOS =    301   number of ions     NIONS =     16
   non local maximal  LDIM  =      6   non local SUM 2l+1 LMDIM =     18
   total plane-waves  NPLWV = 112896
   max r-space proj   IRMAX =      1   max aug-charges    IRDMAX=  10104
   dimension x,y,z NGX =    28 NGY =   28 NGZ =  144
   dimension x,y,z NGXF=    56 NGYF=   56 NGZF=  288
   support grid    NGXF=    56 NGYF=   56 NGZF=  288
   ions per type =               1  14   1
   NGX,Y,Z   is equivalent  to a cutoff of   8.38,  8.38,  7.77 a.u.
   NGXF,Y,Z  is equivalent  to a cutoff of  16.75, 16.75, 15.54 a.u.

 SYSTEM =  unknown system                          
 POSCAR =  Au Pt Ir                                

 Startparameter for this run:
   NWRITE =      2    write-flag & timer
   PREC   = normal    normal or accurate (medium, high low for compatibility)
   ISTART =      0    job   : 0-new  1-cont  2-samecut
   ICHARG =      2    charge: 1-file 2-atom 10-const
   ISPIN  =      1    spin polarized calculation?
   LNONCOLLINEAR =      F non collinear calculations
   LSORBIT =      F    spin-orbit coupling
   INIWAV =      1    electr: 0-lowe 1-rand  2-diag
   LASPH  =      F    aspherical Exc in radial PAW
   METAGGA=      F    non-selfconsistent MetaGGA calc.

 Electronic Relaxation 1
   ENCUT  =  350.0 eV  25.72 Ry    5.07 a.u.   8.48  8.48 46.99*2*pi/ulx,y,z
   ENINI  =  350.0     initial cutoff
   ENAUG  =  359.0 eV  augmentation charge cutoff
   NELM   =     60;   NELMIN=  2; NELMDL= -5     # of ELM steps 
   EDIFF  = 0.1E-04   stopping-criterion for ELM
   LREAL  =      F    real-space projection
   NLSPLINE    = F    spline interpolate recip. space projectors
   LCOMPAT=      F    compatible to vasp.4.4
   GGA_COMPAT  = T    GGA compatible to vasp.4.4-vasp.4.6
   LMAXPAW     = -100 max onsite density
   LMAXMIX     =    2 max onsite mixed and CHGCAR
   VOSKOWN=      0    Vosko Wilk Nusair interpolation
   ROPT   =    0.00000   0.00000   0.00000
 Ionic relaxation
   EDIFFG = -.5E-01   stopping-criterion for IOM
   NSW    =      0    number of steps for IOM
   NBLOCK =      1;   KBLOCK =      1    inner block; outer block 
   IBRION =     -1    ionic relax: 0-MD 1-quasi-New 2-CG
   NFREE  =      1    steps in history (QN), initial steepest desc. (CG)
   ISIF   =      2    stress and relaxation
   IWAVPR =     10    prediction:  0-non 1-charg 2-wave 3-comb
   ISYM   =      2    0-nonsym 1-usesym 2-fastsym
   LCORR  =      T    Harris-Foulkes like correction to forces

   POTIM  = 0.5000    time-step for ionic-motion
   TEIN   =    0.0    initial temperature
   TEBEG  =    0.0;   TEEND  =   0.0 temperature during run
   SMASS  =  -3.00    Nose mass-parameter (am)
   estimated Nose-frequenzy (Omega)   =  0.10E-29 period in steps =****** mass=  -0.706E-27a.u.
   SCALEE = 1.0000    scale energy and forces
   NPACO  =    256;   APACO  = 16.0  distance and # of slots for P.C.
   PSTRESS=    0.0 pullay stress

  Mass of Ions in am
   POMASS = 196.97195.08192.22
  Ionic Valenz
   ZVAL   =  11.00 10.00  9.00
  Atomic Wigner-Seitz radii
   RWIGS  =  -1.00 -1.00 -1.00
  virtual crystal weights 
   VCA    =   1.00  1.00  1.00
   NELECT =     160.0000    total number of electrons
   NUPDOWN=      -1.0000    fix difference up-down

 DOS related values:
   EMIN   =  10.00;   EMAX   =-10.00  energy-range for DOS
   EFERMI =   0.00
   ISMEAR =     1;   SIGMA  =   0.20  broadening in eV -4-tet -1-fermi 0-gaus

 Electronic relaxation 2 (details)
   IALGO  =     38    algorithm
   LDIAG  =      T    sub-space diagonalisation (order eigenvalues)
   LSUBROT=      F    optimize rotation matrix (better conditioning)
   TURBO    =      0    0=normal 1=particle mesh
   IRESTART =      0    0=no restart 2=restart with 2 vectors
   NREBOOT  =      0    no. of reboots
   NMIN     =      0    reboot dimension
   EREF     =   0.00    reference energy to select bands
   IMIX   =      4    mixing-type and parameters
     AMIX     =   0.40;   BMIX     =  1.00
     AMIX_MAG =   1.60;   BMIX_MAG =  1.00
     AMIN     =   0.10
     WC   =   100.;   INIMIX=   1;  MIXPRE=   1;  MAXMIX= -45

 Intra band minimization:
   WEIMIN = 0.0000     energy-eigenvalue tresh-hold
   EBREAK =  0.26E-07  absolut break condition
   DEPER  =   0.30     relativ break condition  

   TIME   =   0.40     timestep for ELM

  volume/ion in A,a.u.               =      51.51       347.59
  Fermi-wavevector in a.u.,A,eV,Ry     =   0.947945  1.791357 12.226201  0.898600
  Thomas-Fermi vector in A             =   2.076087
 
 Write flags
   LWAVE        =      F    write WAVECAR
   LDOWNSAMPLE  =      F    k-point downsampling of WAVECAR
   LCHARG       =      F    write CHGCAR
   LVTOT        =      F    write LOCPOT, total local potential
   LVHAR        =      F    write LOCPOT, Hartree potential only
   LELF         =      F    write electronic localiz. function (ELF)
   LORBIT       =      0    0 simple, 1 ext, 2 COOP (PROOUT), +10 PAW based schemes


 Dipole corrections
   LMONO  =      F    monopole corrections only (constant potential shift)
   LDIPOL =      F    correct potential (dipole corrections)
   IDIPOL =      3    1-x, 2-y, 3-z, 4-all directions 
   EPSILON=  1.0000000 bulk dielectric constant

 Exchange correlation treatment:
   GGA     =    PE    GGA type
   LEXCH   =     8    internal setting for exchange type
   VOSKOWN=      0    Vosko Wilk Nusair interpolation
   LHFCALC =     F    Hartree Fock is set to
   LHFONE  =     F    Hartree Fock one center treatment
   AEXX    =    0.0000 exact exchange contribution

 Linear response parameters
   LEPSILON=     F    determine dielectric tensor
   LRPA    =     F    only Hartree local field effects (RPA)
   LNABLA  =     F    use nabla operator in PAW spheres
   LVEL    =     F    velocity operator in full k-point grid
   LINTERFAST=   F  fast interpolation
   KINTER  =     0    interpolate to denser k-point grid
   CSHIFT  =0.1000    complex shift for real part using Kramers Kronig
   OMEGAMAX=  -1.0    maximum frequency
   DEG_THRESHOLD= 0.2000000E-02 threshold for treating states as degnerate
   RTIME   =   -0.100 relaxation time in fs
  (WPLASMAI=    0.000 imaginary part of plasma frequency in eV, 0.658/RTIME)
   DFIELD  = 0.0000000 0.0000000 0.0000000 field for delta impulse in time
 
 Orbital magnetization related:
   ORBITALMAG=     F  switch on orbital magnetization
   LCHIMAG   =     F  perturbation theory with respect to B field
   DQ        =  0.001000  dq finite difference perturbation B field
   LLRAUG    =     F  two centre corrections for induced B field



--------------------------------------------------------------------------------------------------------


 Static calculation
 charge density and potential will be updated during run
 non-spin polarized calculation
 Variant of blocked Davidson
 Davidson routine will perform the subspace rotation
 perform sub-space diagonalisation
    after iterative eigenvector-optimisation
 modified Broyden-mixing scheme, WC =      100.0
 initial mixing is a Kerker type mixing with AMIX =  0.4000 and BMIX =      1.0000
 Hartree-type preconditioning will be used
 using additional bands           16
 reciprocal scheme for non local part
 use partial core corrections
 calculate Harris-corrections to forces 
   (improved forces if not selfconsistent)
 use gradient corrections 
 use of overlap-Matrix (Vanderbilt PP)
 Methfessel and Paxton  Order N= 1 SIGMA  =   0.20


--------------------------------------------------------------------------------------------------------


  energy-cutoff  :      350.00
  volume of cell :      824.13
      direct lattice vectors                 reciprocal lattice vectors
     5.557859300  0.000000000  0.000000000     0.179925390 -0.103879972  0.000000000
     2.778929650  4.813247345  0.000000000     0.000000000  0.207759944  0.000000000
     0.000000000  0.000000000 30.806959674     0.000000000  0.000000000  0.032460198

  length of vectors
     5.557859300  5.557859300 30.806959674     0.207759944  0.207759944  0.032460198


 
 k-points in units of 2pi/SCALE and weight: KPOINTS created by Atomic Simulation Env
   0.01124534  0.00649250  0.00000000       0.021
  -0.01124534  0.00649250  0.00000000       0.010
   0.03373601 -0.00649250  0.00000000       0.021
   0.02249067  0.02596999  0.00000000       0.021
  -0.01124534  0.03246249  0.00000000       0.021
   0.05622668 -0.01947749  0.00000000       0.021
   0.04498135  0.03895499  0.00000000       0.021
  -0.01124534  0.05843248  0.00000000       0.021
   0.07871736 -0.03246249  0.00000000       0.021
   0.06747202  0.05193999  0.00000000       0.021
  -0.01124534  0.08440248  0.00000000       0.021
  -0.07871736  0.05843248  0.00000000       0.021
   0.08996269 -0.14283496  0.00000000       0.021
  -0.01124534  0.11037247  0.00000000       0.021
  -0.05622668  0.04544749  0.00000000       0.021
  -0.06747202 -0.02596999  0.00000000       0.021
  -0.01124534 -0.07141748  0.00000000       0.021
  -0.03373601  0.03246249  0.00000000       0.021
  -0.04498135 -0.01298500  0.00000000       0.021
  -0.01124534 -0.04544749  0.00000000       0.021
  -0.01124534  0.01947749  0.00000000       0.021
  -0.01124534 -0.01947749  0.00000000       0.010
   0.03373601  0.01947749  0.00000000       0.021
  -0.03373601  0.01947749  0.00000000       0.010
   0.05622668  0.00649250  0.00000000       0.021
   0.02249067  0.05193999  0.00000000       0.021
  -0.03373601  0.04544749  0.00000000       0.021
   0.07871736 -0.00649250  0.00000000       0.021
   0.04498135  0.06492498  0.00000000       0.021
  -0.03373601  0.07141748  0.00000000       0.021
  -0.07871736  0.08440248  0.00000000       0.021
   0.06747202 -0.12984997  0.00000000       0.021
  -0.03373601  0.09738747  0.00000000       0.021
  -0.05622668  0.07141748  0.00000000       0.021
   0.08996269 -0.11686497  0.00000000       0.021
  -0.03373601  0.12335747  0.00000000       0.021
  -0.03373601  0.05843248  0.00000000       0.021
  -0.03373601 -0.05843248  0.00000000       0.010
   0.05622668  0.03246249  0.00000000       0.021
  -0.05622668  0.03246249  0.00000000       0.010
   0.07871736  0.01947749  0.00000000       0.021
   0.02249067  0.07790998  0.00000000       0.021
  -0.05622668  0.05843248  0.00000000       0.021
  -0.07871736  0.11037247  0.00000000       0.021
   0.04498135 -0.11686497  0.00000000       0.021
  -0.05622668  0.08440248  0.00000000       0.021
  -0.05622668  0.09738747  0.00000000       0.021
  -0.05622668  0.11037247  0.00000000       0.010
   0.07871736  0.04544749  0.00000000       0.021
  -0.07871736  0.04544749  0.00000000       0.010
  -0.07871736  0.13634246  0.00000000       0.021
  -0.07871736  0.07141748  0.00000000       0.010
 
 k-points in reciprocal lattice and weights: KPOINTS created by Atomic Simulation Env
   0.06250000  0.06250000  0.00000000       0.021
  -0.06250000  0.00000000  0.00000000       0.010
   0.18750000  0.06250000  0.00000000       0.021
   0.12500000  0.18750000  0.00000000       0.021
  -0.06250000  0.12500000  0.00000000       0.021
   0.31250000  0.06250000  0.00000000       0.021
   0.25000000  0.31250000  0.00000000       0.021
  -0.06250000  0.25000000  0.00000000       0.021
   0.43750000  0.06250000  0.00000000       0.021
   0.37500000  0.43750000  0.00000000       0.021
  -0.06250000  0.37500000  0.00000000       0.021
  -0.43750000  0.06250000  0.00000000       0.021
   0.50000000 -0.43750000  0.00000000       0.021
  -0.06250000  0.50000000  0.00000000       0.021
  -0.31250000  0.06250000  0.00000000       0.021
  -0.37500000 -0.31250000  0.00000000       0.021
  -0.06250000 -0.37500000  0.00000000       0.021
  -0.18750000  0.06250000  0.00000000       0.021
  -0.25000000 -0.18750000  0.00000000       0.021
  -0.06250000 -0.25000000  0.00000000       0.021
  -0.06250000  0.06250000  0.00000000       0.021
  -0.06250000 -0.12500000  0.00000000       0.010
   0.18750000  0.18750000  0.00000000       0.021
  -0.18750000  0.00000000  0.00000000       0.010
   0.31250000  0.18750000  0.00000000       0.021
   0.12500000  0.31250000  0.00000000       0.021
  -0.18750000  0.12500000  0.00000000       0.021
   0.43750000  0.18750000  0.00000000       0.021
   0.25000000  0.43750000  0.00000000       0.021
  -0.18750000  0.25000000  0.00000000       0.021
  -0.43750000  0.18750000  0.00000000       0.021
   0.37500000 -0.43750000  0.00000000       0.021
  -0.18750000  0.37500000  0.00000000       0.021
  -0.31250000  0.18750000  0.00000000       0.021
   0.50000000 -0.31250000  0.00000000       0.021
  -0.18750000  0.50000000  0.00000000       0.021
  -0.18750000  0.18750000  0.00000000       0.021
  -0.18750000 -0.37500000  0.00000000       0.010
   0.31250000  0.31250000  0.00000000       0.021
  -0.31250000  0.00000000  0.00000000       0.010
   0.43750000  0.31250000  0.00000000       0.021
   0.12500000  0.43750000  0.00000000       0.021
  -0.31250000  0.12500000  0.00000000       0.021
  -0.43750000  0.31250000  0.00000000       0.021
   0.25000000 -0.43750000  0.00000000       0.021
  -0.31250000  0.25000000  0.00000000       0.021
  -0.31250000  0.31250000  0.00000000       0.021
  -0.31250000  0.37500000  0.00000000       0.010
   0.43750000  0.43750000  0.00000000       0.021
  -0.43750000  0.00000000  0.00000000       0.010
  -0.43750000  0.43750000  0.00000000       0.021
  -0.43750000  0.12500000  0.00000000       0.010
 
 position of ions in fractional coordinates (direct lattice) 
   0.00000000  0.00000000  0.38952237
   0.50000000  0.00000000  0.38952237
   0.00000000  0.50000000  0.38952237
   0.50000000  0.50000000  0.38952237
   0.16666667  0.16666667  0.46468540
   0.66666667  0.16666667  0.46468540
   0.16666667  0.66666667  0.46468540
   0.66666667  0.66666667  0.46468540
   0.83333333  0.33333333  0.53920296
   0.33333333  0.33333333  0.53920296
   0.83333333  0.83333333  0.53920296
   0.33333333  0.83333333  0.53920296
   0.00000000  0.00000000  0.61486043
   0.50000000  0.00000000  0.61486043
   0.50000000  0.50000000  0.61486043
   0.00000000  0.50000000  0.61486043
 
 position of ions in cartesian coordinates  (Angst):
   0.00000000  0.00000000 12.00000000
   2.77892965  0.00000000 12.00000000
   1.38946483  2.40662367 12.00000000
   4.16839448  2.40662367 12.00000000
   1.38946483  0.80220789 14.31554441
   4.16839448  0.80220789 14.31554441
   2.77892965  3.20883156 14.31554441
   5.55785930  3.20883156 14.31554441
   5.55785930  1.60441578 16.61120399
   2.77892965  1.60441578 16.61120399
   6.94732413  4.01103945 16.61120399
   4.16839448  4.01103945 16.61120399
   0.00000000  0.00000000 18.94198048
   2.77892965  0.00000000 18.94198048
   4.16839448  2.40662367 18.94198048
   1.38946483  2.40662367 18.94198048
 


--------------------------------------------------------------------------------------------------------


 k-point  1 :   0.0625 0.0625 0.0000  plane waves:   12325
 k-point  2 :  -0.0625 0.0000 0.0000  plane waves:   12325
 k-point  3 :   0.1875 0.0625 0.0000  plane waves:   12294
 k-point  4 :   0.1250 0.1875 0.0000  plane waves:   12294
 k-point  5 :  -0.0625 0.1250 0.0000  plane waves:   12294
 k-point  6 :   0.3125 0.0625 0.0000  plane waves:   12263
 k-point  7 :   0.2500 0.3125 0.0000  plane waves:   12263
 k-point  8 :  -0.0625 0.2500 0.0000  plane waves:   12263
 k-point  9 :   0.4375 0.0625 0.0000  plane waves:   12221
 k-point 10 :   0.3750 0.4375 0.0000  plane waves:   12221
 k-point 11 :  -0.0625 0.3750 0.0000  plane waves:   12221
 k-point 12 :  -0.4375 0.0625 0.0000  plane waves:   12211
 k-point 13 :   0.5000-0.4375 0.0000  plane waves:   12211
 k-point 14 :  -0.0625 0.5000 0.0000  plane waves:   12211
 k-point 15 :  -0.3125 0.0625 0.0000  plane waves:   12242
 k-point 16 :  -0.3750-0.3125 0.0000  plane waves:   12242
 k-point 17 :  -0.0625-0.3750 0.0000  plane waves:   12242
 k-point 18 :  -0.1875 0.0625 0.0000  plane waves:   12280
 k-point 19 :  -0.2500-0.1875 0.0000  plane waves:   12280
 k-point 20 :  -0.0625-0.2500 0.0000  plane waves:   12280
 k-point 21 :  -0.0625 0.0625 0.0000  plane waves:   12329
 k-point 22 :  -0.0625-0.1250 0.0000  plane waves:   12329
 k-point 23 :   0.1875 0.1875 0.0000  plane waves:   12277
 k-point 24 :  -0.1875 0.0000 0.0000  plane waves:   12277
 k-point 25 :   0.3125 0.1875 0.0000  plane waves:   12288
 k-point 26 :   0.1250 0.3125 0.0000  plane waves:   12288
 k-point 27 :  -0.1875 0.1250 0.0000  plane waves:   12288
 k-point 28 :   0.4375 0.1875 0.0000  plane waves:   12234
 k-point 29 :   0.2500 0.4375 0.0000  plane waves:   12234
 k-point 30 :  -0.1875 0.2500 0.0000  plane waves:   12234
 k-point 31 :  -0.4375 0.1875 0.0000  plane waves:   12216
 k-point 32 :   0.3750-0.4375 0.0000  plane waves:   12216
 k-point 33 :  -0.1875 0.3750 0.0000  plane waves:   12216
 k-point 34 :  -0.3125 0.1875 0.0000  plane waves:   12215
 k-point 35 :   0.5000-0.3125 0.0000  plane waves:   12215
 k-point 36 :  -0.1875 0.5000 0.0000  plane waves:   12215
 k-point 37 :  -0.1875 0.1875 0.0000  plane waves:   12289
 k-point 38 :  -0.1875-0.3750 0.0000  plane waves:   12289
 k-point 39 :   0.3125 0.3125 0.0000  plane waves:   12275
 k-point 40 :  -0.3125 0.0000 0.0000  plane waves:   12275
 k-point 41 :   0.4375 0.3125 0.0000  plane waves:   12239
 k-point 42 :   0.1250 0.4375 0.0000  plane waves:   12239
 k-point 43 :  -0.3125 0.1250 0.0000  plane waves:   12239
 k-point 44 :  -0.4375 0.3125 0.0000  plane waves:   12235
 k-point 45 :   0.2500-0.4375 0.0000  plane waves:   12235
 k-point 46 :  -0.3125 0.2500 0.0000  plane waves:   12235
 k-point 47 :  -0.3125 0.3125 0.0000  plane waves:   12232
 k-point 48 :  -0.3125 0.3750 0.0000  plane waves:   12232
 k-point 49 :   0.4375 0.4375 0.0000  plane waves:   12200
 k-point 50 :  -0.4375 0.0000 0.0000  plane waves:   12200
 k-point 51 :  -0.4375 0.4375 0.0000  plane waves:   12214
 k-point 52 :  -0.4375 0.1250 0.0000  plane waves:   12214

 maximum and minimum number of plane-waves per node :     12329    12200

 maximum number of plane-waves:     12329
 maximum index in each direction: 
   IXMAX=    8   IYMAX=    8   IZMAX=   46
   IXMIN=   -8   IYMIN=   -8   IZMIN=  -46


 serial   3D FFT for wavefunctions
 parallel 3D FFT for charge:
    minimum data exchange during FFTs selected (reduces bandwidth)


 total amount of memory used by VASP MPI-rank0   362189. kBytes
=======================================================================

   base      :      30000. kBytes
   nonl-proj :     280273. kBytes
   fftplans  :       2015. kBytes
   grid      :       7641. kBytes
   one-center:        248. kBytes
   wavefun   :      42012. kBytes
 
     INWAV:  cpu time    0.0000: real time    0.0000
 Broyden mixing: mesh for mixing (old mesh)
   NGX = 17   NGY = 17   NGZ = 93
  (NGX  = 56   NGY  = 56   NGZ  =288)
  gives a total of  26877 points

 initial charge density was supplied:
 charge density of overlapping atoms calculated
 number of electron     160.0000000 magnetization 
 keeping initial charge density in first step


--------------------------------------------------------------------------------------------------------


 Maximum index for augmentation-charges          821 (set IRDMAX)


--------------------------------------------------------------------------------------------------------


 First call to EWALD:  gamma=   0.189
 Maximum number of real-space cells 5x 5x 1
 Maximum number of reciprocal cells 2x 2x 8

    FEWALD:  cpu time    0.0012: real time    0.0012


--------------------------------------- Iteration      1(   1)  ---------------------------------------


    POTLOK:  cpu time    0.0222: real time    0.0279
    SETDIJ:  cpu time    0.0024: real time    0.0024
     EDDAV:  cpu time   10.8323: real time   10.8599
       DOS:  cpu time    0.0028: real time    0.0028
    --------------------------------------------
      LOOP:  cpu time   10.8597: real time   10.8931

 eigenvalue-minimisations  :  9984
 total energy-change (2. order) : 0.9774797E+03  (-0.5547956E+04)
 number of electron     160.0000000 magnetization 
 augmentation part      160.0000000 magnetization 

 Free energy of the ion-electron system (eV)
  ---------------------------------------------------
  alpha Z        PSCENC =       303.52543553
  Ewald energy   TEWEN  =     98439.91766519
  -Hartree energ DENC   =   -110511.43137500
  -exchange      EXHF   =         0.00000000
  -V(xc)+E(xc)   XCENC  =        46.26589393
  PAW double counting   =     11171.21661038   -10711.84633960
  entropy T*S    EENTRO =        -0.00075291
  eigenvalues    EBANDS =       546.13839768
  atomic energy  EATOM  =     11693.69420960
  Solvation  Ediel_sol  =         0.00000000
  ---------------------------------------------------
  free energy    TOTEN  =       977.47974479 eV

  energy without entropy =      977.48049771  energy(sigma->0) =      977.47999577


--------------------------------------------------------------------------------------------------------




--------------------------------------- Iteration      1(   2)  ---------------------------------------


     EDDAV:  cpu time   14.5736: real time   14.6095
       DOS:  cpu time    0.0015: real time    0.0015
    --------------------------------------------
      LOOP:  cpu time   14.5751: real time   14.6110

 eigenvalue-minimisations  : 14544
 total energy-change (2. order) :-0.1016017E+04  (-0.9851680E+03)
 number of electron     160.0000000 magnetization 
 augmentation part      160.0000000 magnetization 

 Free energy of the ion-electron system (eV)
  ---------------------------------------------------
  alpha Z        PSCENC =       303.52543553
  Ewald energy   TEWEN  =     98439.91766519
  -Hartree energ DENC   =   -110511.43137500
  -exchange      EXHF   =         0.00000000
  -V(xc)+E(xc)   XCENC  =        46.26589393
  PAW double counting   =     11171.21661038   -10711.84633960
  entropy T*S    EENTRO =         0.00210300
  eigenvalues    EBANDS =      -469.88184457
  atomic energy  EATOM  =     11693.69420960
  Solvation  Ediel_sol  =         0.00000000
  ---------------------------------------------------
  free energy    TOTEN  =       -38.53764154 eV

  energy without entropy =      -38.53974454  energy(sigma->0) =      -38.53834254


--------------------------------------------------------------------------------------------------------




--------------------------------------- Iteration      1(   3)  ---------------------------------------


     EDDAV:  cpu time   12.7195: real time   12.7570
       DOS:  cpu time    0.0016: real time    0.0016
    --------------------------------------------
      LOOP:  cpu time   12.7211: real time   12.7585

 eigenvalue-minimisations  : 12384
 total energy-change (2. order) :-0.5843456E+02  (-0.5658176E+02)
 number of electron     160.0000000 magnetization 
 augmentation part      160.0000000 magnetization 

 Free energy of the ion-electron system (eV)
  ---------------------------------------------------
  alpha Z        PSCENC =       303.52543553
  Ewald energy   TEWEN  =     98439.91766519
  -Hartree energ DENC   =   -110511.43137500
  -exchange      EXHF   =         0.00000000
  -V(xc)+E(xc)   XCENC  =        46.26589393
  PAW double counting   =     11171.21661038   -10711.84633960
  entropy T*S    EENTRO =        -0.02728004
  eigenvalues    EBANDS =      -528.28701870
  atomic energy  EATOM  =     11693.69420960
  Solvation  Ediel_sol  =         0.00000000
  ---------------------------------------------------
  free energy    TOTEN  =       -96.97219872 eV

  energy without entropy =      -96.94491868  energy(sigma->0) =      -96.96310537


--------------------------------------------------------------------------------------------------------




--------------------------------------- Iteration      1(   4)  ---------------------------------------


     EDDAV:  cpu time   14.2226: real time   14.2594
       DOS:  cpu time    0.0015: real time    0.0015
    --------------------------------------------
      LOOP:  cpu time   14.2241: real time   14.2609

 eigenvalue-minimisations  : 14208
 total energy-change (2. order) :-0.1257889E+01  (-0.1252038E+01)
 number of electron     160.0000000 magnetization 
 augmentation part      160.0000000 magnetization 

 Free energy of the ion-electron system (eV)
  ---------------------------------------------------
  alpha Z        PSCENC =       303.52543553
  Ewald energy   TEWEN  =     98439.91766519
  -Hartree energ DENC   =   -110511.43137500
  -exchange      EXHF   =         0.00000000
  -V(xc)+E(xc)   XCENC  =        46.26589393
  PAW double counting   =     11171.21661038   -10711.84633960
  entropy T*S    EENTRO =        -0.02631502
  eigenvalues    EBANDS =      -529.54587281
  atomic energy  EATOM  =     11693.69420960
  Solvation  Ediel_sol  =         0.00000000
  ---------------------------------------------------
  free energy    TOTEN  =       -98.23008781 eV

  energy without entropy =      -98.20377278  energy(sigma->0) =      -98.22131613


--------------------------------------------------------------------------------------------------------




--------------------------------------- Iteration      1(   5)  ---------------------------------------


     EDDAV:  cpu time   14.9948: real time   15.0311
       DOS:  cpu time    0.0015: real time    0.0015
    CHARGE:  cpu time    0.3302: real time    0.3312
    MIXING:  cpu time    0.0011: real time    0.0011
    --------------------------------------------
      LOOP:  cpu time   15.3276: real time   15.3649

 eigenvalue-minimisations  : 15072
 total energy-change (2. order) :-0.3334422E-01  (-0.3332900E-01)
 number of electron     160.0000089 magnetization 
 augmentation part       46.9826740 magnetization 

 Broyden mixing:
  rms(total) = 0.41705E+01    rms(broyden)= 0.41704E+01
  rms(prec ) = 0.41997E+01
  weight for this iteration     100.00

 Free energy of the ion-electron system (eV)
  ---------------------------------------------------
  alpha Z        PSCENC =       303.52543553
  Ewald energy   TEWEN  =     98439.91766519
  -Hartree energ DENC   =   -110511.43137500
  -exchange      EXHF   =         0.00000000
  -V(xc)+E(xc)   XCENC  =        46.26589393
  PAW double counting   =     11171.21661038   -10711.84633960
  entropy T*S    EENTRO =        -0.02628537
  eigenvalues    EBANDS =      -529.57924668
  atomic energy  EATOM  =     11693.69420960
  Solvation  Ediel_sol  =         0.00000000
  ---------------------------------------------------
  free energy    TOTEN  =       -98.26343202 eV

  energy without entropy =      -98.23714665  energy(sigma->0) =      -98.25467023


--------------------------------------------------------------------------------------------------------




--------------------------------------- Iteration      1(   6)  ---------------------------------------


    POTLOK:  cpu time    0.0193: real time    0.0225
    SETDIJ:  cpu time    0.0022: real time    0.0023
     EDDAV:  cpu time   12.1675: real time   12.1970
       DOS:  cpu time    0.0016: real time    0.0016
    CHARGE:  cpu time    0.3383: real time    0.3391
    MIXING:  cpu time    0.0009: real time    0.0009
    --------------------------------------------
      LOOP:  cpu time   12.5298: real time   12.5633

 eigenvalue-minimisations  : 11760
 total energy-change (2. order) : 0.3917511E+01  (-0.2961729E+01)
 number of electron     160.0000084 magnetization 
 augmentation part       49.5472268 magnetization 

 Broyden mixing:
  rms(total) = 0.30283E+01    rms(broyden)= 0.30283E+01
  rms(prec ) = 0.31223E+01
  weight for this iteration     100.00

 eigenvalues of (default mixing * dielectric matrix)
  average eigenvalue GAMMA=   1.3265
  1.3265

 Free energy of the ion-electron system (eV)
  ---------------------------------------------------
  alpha Z        PSCENC =       303.52543553
  Ewald energy   TEWEN  =     98439.91766519
  -Hartree energ DENC   =   -110321.94607591
  -exchange      EXHF   =         0.00000000
  -V(xc)+E(xc)   XCENC  =        42.09092688
  PAW double counting   =     12324.45428502   -11888.33984730
  entropy T*S    EENTRO =        -0.02008369
  eigenvalues    EBANDS =      -687.72243610
  atomic energy  EATOM  =     11693.69420960
  Solvation  Ediel_sol  =         0.00000000
  ---------------------------------------------------
  free energy    TOTEN  =       -94.34592078 eV

  energy without entropy =      -94.32583709  energy(sigma->0) =      -94.33922622


--------------------------------------------------------------------------------------------------------




--------------------------------------- Iteration      1(   7)  ---------------------------------------


    POTLOK:  cpu time    0.0168: real time    0.0170
    SETDIJ:  cpu time    0.0022: real time    0.0022
     EDDAV:  cpu time   14.7720: real time   14.8077
       DOS:  cpu time    0.0015: real time    0.0015
    CHARGE:  cpu time    0.3291: real time    0.3299
    MIXING:  cpu time    0.0009: real time    0.0009
    --------------------------------------------
      LOOP:  cpu time   15.1225: real time   15.1592

 eigenvalue-minimisations  : 14856
 total energy-change (2. order) :-0.2945878E+02  (-0.2293172E+02)
 number of electron     160.0000099 magnetization 
 augmentation part       48.7994442 magnetization 

 Broyden mixing:
  rms(total) = 0.49198E+01    rms(broyden)= 0.49197E+01
  rms(prec ) = 0.55099E+01
  weight for this iteration     100.00

 eigenvalues of (default mixing * dielectric matrix)
  average eigenvalue GAMMA=   1.1327
  2.0315  0.2340

 Free energy of the ion-electron system (eV)
  ---------------------------------------------------
  alpha Z        PSCENC =       303.52543553
  Ewald energy   TEWEN  =     98439.91766519
  -Hartree energ DENC   =   -110500.57078576
  -exchange      EXHF   =         0.00000000
  -V(xc)+E(xc)   XCENC  =        41.00663177
  PAW double counting   =     13221.49081578   -12795.75984349
  entropy T*S    EENTRO =         0.00514729
  eigenvalues    EBANDS =      -527.11397607
  atomic energy  EATOM  =     11693.69420960
  Solvation  Ediel_sol  =         0.00000000
  ---------------------------------------------------
  free energy    TOTEN  =      -123.80470015 eV

  energy without entropy =     -123.80984745  energy(sigma->0) =     -123.80641592


--------------------------------------------------------------------------------------------------------




--------------------------------------- Iteration      1(   8)  ---------------------------------------


    POTLOK:  cpu time    0.0178: real time    0.0228
    SETDIJ:  cpu time    0.0022: real time    0.0023
     EDDAV:  cpu time   15.2235: real time   15.2668
       DOS:  cpu time    0.0015: real time    0.0015
    CHARGE:  cpu time    0.3326: real time    0.3334
    MIXING:  cpu time    0.0010: real time    0.0010
    --------------------------------------------
      LOOP:  cpu time   15.5786: real time   15.6278

 eigenvalue-minimisations  : 15384
 total energy-change (2. order) : 0.2253384E+02  (-0.8571853E+01)
 number of electron     160.0000104 magnetization 
 augmentation part       50.1354744 magnetization 

 Broyden mixing:
  rms(total) = 0.26122E+01    rms(broyden)= 0.26122E+01
  rms(prec ) = 0.30511E+01
  weight for this iteration     100.00

 eigenvalues of (default mixing * dielectric matrix)
  average eigenvalue GAMMA=   0.9368
  2.1926  0.3089  0.3089

 Free energy of the ion-electron system (eV)
  ---------------------------------------------------
  alpha Z        PSCENC =       303.52543553
  Ewald energy   TEWEN  =     98439.91766519
  -Hartree energ DENC   =   -110358.56238353
  -exchange      EXHF   =         0.00000000
  -V(xc)+E(xc)   XCENC  =        40.05533594
  PAW double counting   =     13990.37624267   -13574.79802936
  entropy T*S    EENTRO =         0.01295956
  eigenvalues    EBANDS =      -635.49229365
  atomic energy  EATOM  =     11693.69420960
  Solvation  Ediel_sol  =         0.00000000
  ---------------------------------------------------
  free energy    TOTEN  =      -101.27085806 eV

  energy without entropy =     -101.28381762  energy(sigma->0) =     -101.27517791


--------------------------------------------------------------------------------------------------------




--------------------------------------- Iteration      1(   9)  ---------------------------------------


    POTLOK:  cpu time    0.0177: real time    0.0184
    SETDIJ:  cpu time    0.0022: real time    0.0022
     EDDAV:  cpu time   13.7365: real time   13.7697
       DOS:  cpu time    0.0015: real time    0.0015
    CHARGE:  cpu time    0.3291: real time    0.3299
    MIXING:  cpu time    0.0008: real time    0.0008
    --------------------------------------------
      LOOP:  cpu time   14.0879: real time   14.1226

 eigenvalue-minimisations  : 13608
 total energy-change (2. order) :-0.1764915E+01  (-0.9233977E+01)
 number of electron     160.0000084 magnetization 
 augmentation part       50.2915430 magnetization 

 Broyden mixing:
  rms(total) = 0.28099E+01    rms(broyden)= 0.28098E+01
  rms(prec ) = 0.37499E+01
  weight for this iteration     100.00

 eigenvalues of (default mixing * dielectric matrix)
  average eigenvalue GAMMA=   0.8685
  2.2726  0.7610  0.2833  0.1570

 Free energy of the ion-electron system (eV)
  ---------------------------------------------------
  alpha Z        PSCENC =       303.52543553
  Ewald energy   TEWEN  =     98439.91766519
  -Hartree energ DENC   =   -110317.84017036
  -exchange      EXHF   =         0.00000000
  -V(xc)+E(xc)   XCENC  =        40.07128785
  PAW double counting   =     14190.35677434   -13776.35627366
  entropy T*S    EENTRO =         0.02566588
  eigenvalues    EBANDS =      -676.43036788
  atomic energy  EATOM  =     11693.69420960
  Solvation  Ediel_sol  =         0.00000000
  ---------------------------------------------------
  free energy    TOTEN  =      -103.03577352 eV

  energy without entropy =     -103.06143940  energy(sigma->0) =     -103.04432881


--------------------------------------------------------------------------------------------------------




--------------------------------------- Iteration      1(  10)  ---------------------------------------


    POTLOK:  cpu time    0.0175: real time    0.0178
    SETDIJ:  cpu time    0.0022: real time    0.0022
     EDDAV:  cpu time   16.0120: real time   16.0578
       DOS:  cpu time    0.0015: real time    0.0015
    CHARGE:  cpu time    0.3281: real time    0.3290
    MIXING:  cpu time    0.0009: real time    0.0009
    --------------------------------------------
      LOOP:  cpu time   16.3622: real time   16.4091

 eigenvalue-minimisations  : 16128
 total energy-change (2. order) : 0.1804186E+01  (-0.8080438E+01)
 number of electron     160.0000091 magnetization 
 augmentation part       50.2620079 magnetization 

 Broyden mixing:
  rms(total) = 0.24996E+01    rms(broyden)= 0.24995E+01
  rms(prec ) = 0.31574E+01
  weight for this iteration     100.00

 eigenvalues of (default mixing * dielectric matrix)
  average eigenvalue GAMMA=   0.7648
  2.3587  0.8664  0.2399  0.2399  0.1191

 Free energy of the ion-electron system (eV)
  ---------------------------------------------------
  alpha Z        PSCENC =       303.52543553
  Ewald energy   TEWEN  =     98439.91766519
  -Hartree energ DENC   =   -110312.62400778
  -exchange      EXHF   =         0.00000000
  -V(xc)+E(xc)   XCENC  =        40.13591911
  PAW double counting   =     14352.87125779   -13939.19010372
  entropy T*S    EENTRO =        -0.03098893
  eigenvalues    EBANDS =      -679.53097387
  atomic energy  EATOM  =     11693.69420960
  Solvation  Ediel_sol  =         0.00000000
  ---------------------------------------------------
  free energy    TOTEN  =      -101.23158708 eV

  energy without entropy =     -101.20059815  energy(sigma->0) =     -101.22125744


--------------------------------------------------------------------------------------------------------




--------------------------------------- Iteration      1(  11)  ---------------------------------------


    POTLOK:  cpu time    0.0172: real time    0.0211
    SETDIJ:  cpu time    0.0023: real time    0.0023
     EDDAV:  cpu time   13.9506: real time   13.9853
       DOS:  cpu time    0.0016: real time    0.0016
    CHARGE:  cpu time    0.3643: real time    0.3652
    MIXING:  cpu time    0.0010: real time    0.0010
    --------------------------------------------
      LOOP:  cpu time   14.3370: real time   14.3765

 eigenvalue-minimisations  : 13824
 total energy-change (2. order) : 0.8254223E+01  (-0.2855947E+01)
 number of electron     160.0000089 magnetization 
 augmentation part       50.2713820 magnetization 

 Broyden mixing:
  rms(total) = 0.98753E+00    rms(broyden)= 0.98747E+00
  rms(prec ) = 0.10952E+01
  weight for this iteration     100.00

 eigenvalues of (default mixing * dielectric matrix)
  average eigenvalue GAMMA=   0.6870
  2.1716  0.8015  0.4261  0.2986  0.2986  0.1253

 Free energy of the ion-electron system (eV)
  ---------------------------------------------------
  alpha Z        PSCENC =       303.52543553
  Ewald energy   TEWEN  =     98439.91766519
  -Hartree energ DENC   =   -110317.93087165
  -exchange      EXHF   =         0.00000000
  -V(xc)+E(xc)   XCENC  =        40.26605239
  PAW double counting   =     14466.86384015   -14053.65383257
  entropy T*S    EENTRO =        -0.04602512
  eigenvalues    EBANDS =      -665.61383744
  atomic energy  EATOM  =     11693.69420960
  Solvation  Ediel_sol  =         0.00000000
  ---------------------------------------------------
  free energy    TOTEN  =       -92.97736393 eV

  energy without entropy =      -92.93133881  energy(sigma->0) =      -92.96202223


--------------------------------------------------------------------------------------------------------




--------------------------------------- Iteration      1(  12)  ---------------------------------------


    POTLOK:  cpu time    0.0191: real time    0.0229
    SETDIJ:  cpu time    0.0023: real time    0.0023
     EDDAV:  cpu time   14.8825: real time   14.9299
       DOS:  cpu time    0.0015: real time    0.0015
    CHARGE:  cpu time    0.3583: real time    0.3592
    MIXING:  cpu time    0.0010: real time    0.0010
    --------------------------------------------
      LOOP:  cpu time   15.2648: real time   15.3169

 eigenvalue-minimisations  : 15000
 total energy-change (2. order) :-0.1036952E+00  (-0.8144565E+00)
 number of electron     160.0000094 magnetization 
 augmentation part       50.2611453 magnetization 

 Broyden mixing:
  rms(total) = 0.11108E+01    rms(broyden)= 0.11108E+01
  rms(prec ) = 0.12875E+01
  weight for this iteration     100.00

 eigenvalues of (default mixing * dielectric matrix)
  average eigenvalue GAMMA=   0.6450
  2.0900  0.7217  0.7217  0.3750  0.2419  0.2419  0.1225

 Free energy of the ion-electron system (eV)
  ---------------------------------------------------
  alpha Z        PSCENC =       303.52543553
  Ewald energy   TEWEN  =     98439.91766519
  -Hartree energ DENC   =   -110313.43120557
  -exchange      EXHF   =         0.00000000
  -V(xc)+E(xc)   XCENC  =        40.32262918
  PAW double counting   =     14371.92516545   -13957.83515805
  entropy T*S    EENTRO =        -0.02365911
  eigenvalues    EBANDS =      -671.17614131
  atomic energy  EATOM  =     11693.69420960
  Solvation  Ediel_sol  =         0.00000000
  ---------------------------------------------------
  free energy    TOTEN  =       -93.08105909 eV

  energy without entropy =      -93.05739998  energy(sigma->0) =      -93.07317272


--------------------------------------------------------------------------------------------------------




--------------------------------------- Iteration      1(  13)  ---------------------------------------


    POTLOK:  cpu time    0.0173: real time    0.0175
    SETDIJ:  cpu time    0.0022: real time    0.0022
     EDDAV:  cpu time   14.3286: real time   14.3633
       DOS:  cpu time    0.0016: real time    0.0016
    CHARGE:  cpu time    0.3989: real time    0.3999
    MIXING:  cpu time    0.0010: real time    0.0010
    --------------------------------------------
      LOOP:  cpu time   14.7495: real time   14.7855

 eigenvalue-minimisations  : 14328
 total energy-change (2. order) : 0.9414745E+00  (-0.7284495E+00)
 number of electron     160.0000091 magnetization 
 augmentation part       50.1675884 magnetization 

 Broyden mixing:
  rms(total) = 0.47255E+00    rms(broyden)= 0.47247E+00
  rms(prec ) = 0.50682E+00
  weight for this iteration     100.00

 eigenvalues of (default mixing * dielectric matrix)
  average eigenvalue GAMMA=   0.6763
  2.1444  1.0696  0.6369  0.6369  0.2922  0.2922  0.2152  0.1231

 Free energy of the ion-electron system (eV)
  ---------------------------------------------------
  alpha Z        PSCENC =       303.52543553
  Ewald energy   TEWEN  =     98439.91766519
  -Hartree energ DENC   =   -110320.82416796
  -exchange      EXHF   =         0.00000000
  -V(xc)+E(xc)   XCENC  =        40.47098563
  PAW double counting   =     14326.13284402   -13911.48524764
  entropy T*S    EENTRO =        -0.04541852
  eigenvalues    EBANDS =      -663.52589045
  atomic energy  EATOM  =     11693.69420960
  Solvation  Ediel_sol  =         0.00000000
  ---------------------------------------------------
  free energy    TOTEN  =       -92.13958460 eV

  energy without entropy =      -92.09416608  energy(sigma->0) =      -92.12444509


--------------------------------------------------------------------------------------------------------




--------------------------------------- Iteration      1(  14)  ---------------------------------------


    POTLOK:  cpu time    0.0171: real time    0.0174
    SETDIJ:  cpu time    0.0022: real time    0.0022
     EDDAV:  cpu time   12.3010: real time   12.3308
       DOS:  cpu time    0.0015: real time    0.0015
    CHARGE:  cpu time    0.3693: real time    0.3702
    MIXING:  cpu time    0.0011: real time    0.0011
    --------------------------------------------
      LOOP:  cpu time   12.6922: real time   12.7231

 eigenvalue-minimisations  : 11928
 total energy-change (2. order) : 0.7787092E-01  (-0.1146446E+00)
 number of electron     160.0000093 magnetization 
 augmentation part       50.1062784 magnetization 

 Broyden mixing:
  rms(total) = 0.35091E+00    rms(broyden)= 0.35087E+00
  rms(prec ) = 0.36726E+00
  weight for this iteration     100.00

 eigenvalues of (default mixing * dielectric matrix)
  average eigenvalue GAMMA=   0.6290
  2.1052  1.0407  0.6981  0.6981  0.2937  0.2937  0.1229  0.2044  0.2044

 Free energy of the ion-electron system (eV)
  ---------------------------------------------------
  alpha Z        PSCENC =       303.52543553
  Ewald energy   TEWEN  =     98439.91766519
  -Hartree energ DENC   =   -110332.42449080
  -exchange      EXHF   =         0.00000000
  -V(xc)+E(xc)   XCENC  =        40.45729497
  PAW double counting   =     14335.66484714   -13921.21219221
  entropy T*S    EENTRO =        -0.03433606
  eigenvalues    EBANDS =      -651.65014705
  atomic energy  EATOM  =     11693.69420960
  Solvation  Ediel_sol  =         0.00000000
  ---------------------------------------------------
  free energy    TOTEN  =       -92.06171368 eV

  energy without entropy =      -92.02737762  energy(sigma->0) =      -92.05026833


--------------------------------------------------------------------------------------------------------




--------------------------------------- Iteration      1(  15)  ---------------------------------------


    POTLOK:  cpu time    0.0173: real time    0.0175
    SETDIJ:  cpu time    0.0022: real time    0.0022
     EDDAV:  cpu time   13.1040: real time   13.1355
       DOS:  cpu time    0.0016: real time    0.0016
    CHARGE:  cpu time    0.3669: real time    0.3677
    MIXING:  cpu time    0.0013: real time    0.0013
    --------------------------------------------
      LOOP:  cpu time   13.4932: real time   13.5257

 eigenvalue-minimisations  : 12864
 total energy-change (2. order) : 0.7758986E-03  (-0.6057662E-02)
 number of electron     160.0000093 magnetization 
 augmentation part       50.0949971 magnetization 

 Broyden mixing:
  rms(total) = 0.32309E+00    rms(broyden)= 0.32308E+00
  rms(prec ) = 0.34859E+00
  weight for this iteration     100.00

 eigenvalues of (default mixing * dielectric matrix)
  average eigenvalue GAMMA=   0.6697
  1.9566  1.1337  1.1337  0.6785  0.4397  0.4397  0.2881  0.2881  0.1231  0.2157

 Free energy of the ion-electron system (eV)
  ---------------------------------------------------
  alpha Z        PSCENC =       303.52543553
  Ewald energy   TEWEN  =     98439.91766519
  -Hartree energ DENC   =   -110333.69934992
  -exchange      EXHF   =         0.00000000
  -V(xc)+E(xc)   XCENC  =        40.47065469
  PAW double counting   =     14311.65931570   -13897.08920911
  entropy T*S    EENTRO =        -0.03718212
  eigenvalues    EBANDS =      -650.50247735
  atomic energy  EATOM  =     11693.69420960
  Solvation  Ediel_sol  =         0.00000000
  ---------------------------------------------------
  free energy    TOTEN  =       -92.06093778 eV

  energy without entropy =      -92.02375566  energy(sigma->0) =      -92.04854374


--------------------------------------------------------------------------------------------------------




--------------------------------------- Iteration      1(  16)  ---------------------------------------


    POTLOK:  cpu time    0.0181: real time    0.0221
    SETDIJ:  cpu time    0.0023: real time    0.0023
     EDDAV:  cpu time   14.9937: real time   15.0346
       DOS:  cpu time    0.0016: real time    0.0016
    CHARGE:  cpu time    0.3685: real time    0.3694
    MIXING:  cpu time    0.0015: real time    0.0015
    --------------------------------------------
      LOOP:  cpu time   15.3857: real time   15.4314

 eigenvalue-minimisations  : 14664
 total energy-change (2. order) : 0.8140411E-02  (-0.7205983E-02)
 number of electron     160.0000093 magnetization 
 augmentation part       50.0942186 magnetization 

 Broyden mixing:
  rms(total) = 0.27428E+00    rms(broyden)= 0.27427E+00
  rms(prec ) = 0.31673E+00
  weight for this iteration     100.00

 eigenvalues of (default mixing * dielectric matrix)
  average eigenvalue GAMMA=   0.7567
  1.7630  1.7630  1.7562  0.7573  0.5416  0.5416  0.1230  0.2858  0.2858  0.2164
  0.2905

 Free energy of the ion-electron system (eV)
  ---------------------------------------------------
  alpha Z        PSCENC =       303.52543553
  Ewald energy   TEWEN  =     98439.91766519
  -Hartree energ DENC   =   -110335.13455076
  -exchange      EXHF   =         0.00000000
  -V(xc)+E(xc)   XCENC  =        40.50930279
  PAW double counting   =     14244.40847063   -13829.57256359
  entropy T*S    EENTRO =        -0.03663561
  eigenvalues    EBANDS =      -649.36413116
  atomic energy  EATOM  =     11693.69420960
  Solvation  Ediel_sol  =         0.00000000
  ---------------------------------------------------
  free energy    TOTEN  =       -92.05279737 eV

  energy without entropy =      -92.01616176  energy(sigma->0) =      -92.04058550


--------------------------------------------------------------------------------------------------------




--------------------------------------- Iteration      1(  17)  ---------------------------------------


    POTLOK:  cpu time    0.0195: real time    0.0244
    SETDIJ:  cpu time    0.0023: real time    0.0023
     EDDAV:  cpu time   12.6310: real time   12.6622
       DOS:  cpu time    0.0016: real time    0.0016
    CHARGE:  cpu time    0.3690: real time    0.3699
    MIXING:  cpu time    0.0013: real time    0.0013
    --------------------------------------------
      LOOP:  cpu time   13.0247: real time   13.0617

 eigenvalue-minimisations  : 12264
 total energy-change (2. order) : 0.3648918E-01  (-0.2785321E-01)
 number of electron     160.0000092 magnetization 
 augmentation part       50.0908973 magnetization 

 Broyden mixing:
  rms(total) = 0.90286E-01    rms(broyden)= 0.90264E-01
  rms(prec ) = 0.95775E-01
  weight for this iteration     100.00

 eigenvalues of (default mixing * dielectric matrix)
  average eigenvalue GAMMA=   0.7483
  1.7896  1.7896  1.7849  0.8309  0.5710  0.5710  0.4650  0.1230  0.2837  0.2837
  0.2161  0.2706

 Free energy of the ion-electron system (eV)
  ---------------------------------------------------
  alpha Z        PSCENC =       303.52543553
  Ewald energy   TEWEN  =     98439.91766519
  -Hartree energ DENC   =   -110338.05847418
  -exchange      EXHF   =         0.00000000
  -V(xc)+E(xc)   XCENC  =        40.55265835
  PAW double counting   =     14182.69309431   -13767.74932654
  entropy T*S    EENTRO =        -0.03924649
  eigenvalues    EBANDS =      -646.55232398
  atomic energy  EATOM  =     11693.69420960
  Solvation  Ediel_sol  =         0.00000000
  ---------------------------------------------------
  free energy    TOTEN  =       -92.01630819 eV

  energy without entropy =      -91.97706171  energy(sigma->0) =      -92.00322603


--------------------------------------------------------------------------------------------------------




--------------------------------------- Iteration      1(  18)  ---------------------------------------


    POTLOK:  cpu time    0.0175: real time    0.0199
    SETDIJ:  cpu time    0.0022: real time    0.0022
     EDDAV:  cpu time   12.8912: real time   12.9275
       DOS:  cpu time    0.0015: real time    0.0015
    CHARGE:  cpu time    0.3697: real time    0.3706
    MIXING:  cpu time    0.0014: real time    0.0014
    --------------------------------------------
      LOOP:  cpu time   13.2835: real time   13.3230

 eigenvalue-minimisations  : 12576
 total energy-change (2. order) :-0.1458641E-02  (-0.4203192E-02)
 number of electron     160.0000092 magnetization 
 augmentation part       50.0879418 magnetization 

 Broyden mixing:
  rms(total) = 0.99911E-01    rms(broyden)= 0.99906E-01
  rms(prec ) = 0.12447E+00
  weight for this iteration     100.00

 eigenvalues of (default mixing * dielectric matrix)
  average eigenvalue GAMMA=   0.7134
  1.9792  1.9792  1.4978  0.7367  0.5922  0.5922  0.4076  0.1230  0.2828  0.2828
  0.2166  0.2921  0.2921

 Free energy of the ion-electron system (eV)
  ---------------------------------------------------
  alpha Z        PSCENC =       303.52543553
  Ewald energy   TEWEN  =     98439.91766519
  -Hartree energ DENC   =   -110338.88592358
  -exchange      EXHF   =         0.00000000
  -V(xc)+E(xc)   XCENC  =        40.56526689
  PAW double counting   =     14184.29213650   -13769.36953333
  entropy T*S    EENTRO =        -0.03893873
  eigenvalues    EBANDS =      -645.71808490
  atomic energy  EATOM  =     11693.69420960
  Solvation  Ediel_sol  =         0.00000000
  ---------------------------------------------------
  free energy    TOTEN  =       -92.01776683 eV

[...]
     80      -0.8331      1.18778
     81      -0.7662      0.63313
     82      -0.7239      0.33642
     83      -0.6622      0.05211
     84      -0.4876     -0.04470
     85      -0.4727     -0.03798
     86      -0.3448     -0.00479
     87       1.1589     -0.00000
     88       1.1723     -0.00000
     89       1.2739     -0.00000
     90       1.7630     -0.00000
     91       1.7734     -0.00000
     92       1.7872     -0.00000
     93       2.8490     -0.00000
     94       2.8757     -0.00000
     95       3.2746     -0.00000
     96       4.3598     -0.00000

 k-point    51 :      -0.4375    0.4375    0.0000
  band No.  band energies     occupation 
      1      -8.3125      2.00000
      2      -8.2829      2.00000
      3      -7.3135      2.00000
      4      -7.2501      2.00000
      5      -6.8414      2.00000
      6      -6.5853      2.00000
      7      -6.5142      2.00000
      8      -6.4539      2.00000
      9      -6.3606      2.00000
     10      -6.2729      2.00000
     11      -6.2014      2.00000
     12      -6.1493      2.00000
     13      -6.1464      2.00000
     14      -5.9572      2.00000
     15      -5.8042      2.00000
     16      -5.7183      2.00000
     17      -5.7032      2.00000
     18      -5.6780      2.00000
     19      -5.5498      2.00000
     20      -5.4566      2.00000
     21      -5.3605      2.00000
     22      -5.2898      2.00000
     23      -5.2741      2.00000
     24      -5.2119      2.00000
     25      -5.1551      2.00000
     26      -5.0770      2.00000
     27      -5.0700      2.00000
     28      -5.0314      2.00000
     29      -4.7657      2.00000
     30      -4.7245      2.00000
     31      -4.6672      2.00000
     32      -4.6098      2.00000
     33      -4.5581      2.00000
     34      -4.4701      2.00000
     35      -4.4358      2.00000
     36      -4.3209      2.00000
     37      -4.2227      2.00000
     38      -4.1451      2.00000
     39      -4.1213      2.00000
     40      -4.0840      2.00000
     41      -4.0383      2.00000
     42      -3.9326      2.00000
     43      -3.8339      2.00000
     44      -3.7225      2.00000
     45      -3.7010      2.00000
     46      -3.6736      2.00000
     47      -3.6371      2.00000
     48      -3.6040      2.00000
     49      -3.5720      2.00000
     50      -3.4488      2.00000
     51      -3.3733      2.00000
     52      -3.3052      2.00000
     53      -3.1661      2.00000
     54      -2.9895      2.00000
     55      -2.9343      2.00000
     56      -2.8770      2.00000
     57      -2.8612      2.00000
     58      -2.8177      2.00000
     59      -2.6850      2.00000
     60      -2.5998      2.00000
     61      -2.5304      2.00000
     62      -2.4888      2.00000
     63      -2.3940      2.00000
     64      -2.3465      2.00000
     65      -2.2224      2.00000
     66      -2.1815      2.00000
     67      -2.1230      2.00000
     68      -2.0320      2.00000
     69      -1.9649      2.00000
     70      -1.9049      2.00000
     71      -1.8679      2.00000
     72      -1.7932      2.00000
     73      -1.6996      2.00000
     74      -1.5627      2.00000
     75      -1.4489      2.00006
     76      -1.3526      2.00086
     77      -1.2860      2.00395
     78      -1.0845      2.06569
     79      -0.9707      1.97991
     80      -0.8977      1.66417
     81      -0.8630      1.42580
     82      -0.7640      0.61648
     83      -0.6848      0.13425
     84      -0.5876     -0.06669
     85      -0.4240     -0.01968
     86      -0.4041     -0.01434
     87       0.2033     -0.00000
     88       0.5030     -0.00000
     89       1.4511     -0.00000
     90       1.5186     -0.00000
     91       1.6119     -0.00000
     92       2.3547     -0.00000
     93       3.1502     -0.00000
     94       3.4370     -0.00000
     95       3.9365     -0.00000
     96       3.9958     -0.00000

 k-point    52 :      -0.4375    0.1250    0.0000
  band No.  band energies     occupation 
      1      -8.3092      2.00000
      2      -8.2860      2.00000
      3      -7.3115      2.00000
      4      -7.2530      2.00000
      5      -6.8405      2.00000
      6      -6.5826      2.00000
      7      -6.5103      2.00000
      8      -6.4526      2.00000
      9      -6.3636      2.00000
     10      -6.2734      2.00000
     11      -6.2173      2.00000
     12      -6.1461      2.00000
     13      -6.1375      2.00000
     14      -5.9596      2.00000
     15      -5.8018      2.00000
     16      -5.7152      2.00000
     17      -5.7023      2.00000
     18      -5.6816      2.00000
     19      -5.5573      2.00000
     20      -5.4578      2.00000
     21      -5.3573      2.00000
     22      -5.2832      2.00000
     23      -5.2825      2.00000
     24      -5.2051      2.00000
     25      -5.1572      2.00000
     26      -5.0837      2.00000
     27      -5.0650      2.00000
     28      -5.0169      2.00000
     29      -4.7985      2.00000
     30      -4.7195      2.00000
     31      -4.6654      2.00000
     32      -4.6079      2.00000
     33      -4.5535      2.00000
     34      -4.4643      2.00000
     35      -4.4278      2.00000
     36      -4.3156      2.00000
     37      -4.2385      2.00000
     38      -4.1474      2.00000
     39      -4.1130      2.00000
     40      -4.0874      2.00000
     41      -4.0231      2.00000
     42      -3.9375      2.00000
     43      -3.8380      2.00000
     44      -3.7388      2.00000
     45      -3.6939      2.00000
     46      -3.6698      2.00000
     47      -3.6292      2.00000
     48      -3.5961      2.00000
     49      -3.5859      2.00000
     50      -3.4790      2.00000
     51      -3.3651      2.00000
     52      -3.2837      2.00000
     53      -3.1341      2.00000
     54      -2.9892      2.00000
     55      -2.9369      2.00000
     56      -2.9000      2.00000
     57      -2.8795      2.00000
     58      -2.8195      2.00000
     59      -2.6912      2.00000
     60      -2.5917      2.00000
     61      -2.5255      2.00000
     62      -2.4885      2.00000
     63      -2.4032      2.00000
     64      -2.3270      2.00000
     65      -2.2156      2.00000
     66      -2.1704      2.00000
     67      -2.1077      2.00000
     68      -2.0519      2.00000
     69      -1.9851      2.00000
     70      -1.9172      2.00000
     71      -1.8651      2.00000
     72      -1.7966      2.00000
     73      -1.7053      2.00000
     74      -1.5926      2.00000
     75      -1.4368      2.00009
     76      -1.2726      2.00520
     77      -1.2529      2.00763
     78      -1.1582      2.03391
     79      -0.9888      2.01941
     80      -0.8955      1.65067
     81      -0.8532      1.35067
     82      -0.7838      0.77448
     83      -0.6409     -0.00321
     84      -0.6081     -0.05286
     85      -0.4444     -0.02647
     86      -0.3817     -0.00972
     87       0.2038     -0.00000
     88       0.5028     -0.00000
     89       1.4453     -0.00000
     90       1.5527     -0.00000
     91       1.5825     -0.00000
     92       2.3502     -0.00000
     93       3.1666     -0.00000
     94       3.4234     -0.00000
     95       3.9445     -0.00000
     96       3.9898     -0.00000


--------------------------------------------------------------------------------------------------------


 soft charge-density along one line, spin component           1
         0         1         2         3         4         5         6         7         8         9
 total charge-density along one line
 
 pseudopotential strength for first ion, spin component:           1
 -8.080  -0.001   0.000  -0.005   0.000  -8.226  -0.001   0.000
 -0.001  -8.002   0.000  -0.000  -0.006  -0.001  -8.150   0.000
  0.000   0.000  -7.993  -0.000  -0.000   0.000   0.000  -8.141
 -0.005  -0.000  -0.000  -8.002  -0.001  -0.005  -0.000  -0.000
  0.000  -0.006  -0.000  -0.001  -8.080   0.000  -0.006  -0.000
 -8.226  -0.001   0.000  -0.005   0.000  -8.355  -0.001   0.000
 -0.001  -8.150   0.000  -0.000  -0.006  -0.001  -8.281   0.000
  0.000   0.000  -8.141  -0.000  -0.000   0.000   0.000  -8.272
 -0.005  -0.000  -0.000  -8.149  -0.001  -0.005  -0.000  -0.000
  0.000  -0.006  -0.000  -0.001  -8.226   0.000  -0.006  -0.000
  0.000  -0.000  -0.025   0.000  -0.000   0.000  -0.000  -0.025
  0.000  -0.000  -0.036   0.000  -0.000   0.000  -0.000  -0.036
  0.000  -0.000   0.000  -0.000   0.000   0.000  -0.000   0.000
 -0.000   0.000  -0.002  -0.000   0.000  -0.000   0.000  -0.002
  0.000  -0.000  -0.000  -0.000   0.000   0.000  -0.000  -0.000
  0.000   0.001   0.000  -0.000   0.001   0.000   0.002   0.000
 -0.000  -0.000  -0.001   0.000   0.000  -0.000  -0.000  -0.000
  0.001  -0.000  -0.000   0.001   0.000   0.001  -0.000  -0.000
 total augmentation occupancy for first ion, spin component:           1
  4.823  -0.016  -0.001  -0.015   0.001  -2.997   0.012   0.001  -0.068  -0.001  -0.002  -0.002   0.000   0.001  -0.050   0.000
 -0.016   4.887  -0.005  -0.001  -0.033   0.012  -2.605   0.004   0.001  -0.053   0.002   0.001  -0.229   0.000  -0.000   0.012
 -0.001  -0.005   5.510   0.009   0.001   0.001   0.004  -3.317  -0.006  -0.000   0.838  -0.068   0.001  -0.386  -0.002   0.000
 -0.015  -0.001   0.009   4.888  -0.016  -0.066   0.001  -0.006  -2.607   0.012  -0.003  -0.001  -0.000  -0.000  -0.228  -0.000
  0.001  -0.033   0.001  -0.016   4.824  -0.001  -0.055  -0.000   0.012  -2.998   0.001   0.001  -0.050  -0.000   0.000   0.002
 -2.997   0.012   0.001  -0.066  -0.001   3.032  -0.009  -0.000   0.130   0.000   0.001   0.002  -0.000  -0.000   0.047   0.000
  0.012  -2.605   0.004   0.001  -0.055  -0.009   2.286  -0.003  -0.001   0.120  -0.000  -0.001   0.212  -0.000   0.000  -0.010
  0.001   0.004  -3.317  -0.006  -0.000  -0.000  -0.003   3.070   0.004   0.000  -0.764   0.079  -0.001   0.384   0.002   0.000
 -0.068   0.001  -0.006  -2.607   0.012   0.130  -0.001   0.004   2.287  -0.009   0.001   0.002   0.000   0.000   0.212   0.000
 -0.001  -0.053  -0.000   0.012  -2.998   0.000   0.120   0.000  -0.009   3.033  -0.001  -0.001   0.047   0.000  -0.000  -0.002
 -0.002   0.002   0.838  -0.003   0.001   0.001  -0.000  -0.764   0.001  -0.001   2.559  -0.585   0.000   0.172  -0.000  -0.000
 -0.002   0.001  -0.068  -0.001   0.001   0.002  -0.001   0.079   0.002  -0.001  -0.585   0.174  -0.000  -0.079   0.000   0.000
  0.000  -0.229   0.001  -0.000  -0.050  -0.000   0.212  -0.001   0.000   0.047   0.000  -0.000   0.235  -0.000  -0.000  -0.007
  0.001   0.000  -0.386  -0.000  -0.000  -0.000  -0.000   0.384   0.000   0.000   0.172  -0.079  -0.000   0.133   0.001   0.000
 -0.050  -0.000  -0.002  -0.228   0.000   0.047   0.000   0.002   0.212  -0.000  -0.000   0.000  -0.000   0.001   0.235   0.000
  0.000   0.012   0.000  -0.000   0.002   0.000  -0.010   0.000   0.000  -0.002  -0.000   0.000  -0.007   0.000   0.000   0.000
 -0.000   0.000   0.010  -0.000   0.000   0.000  -0.000  -0.011   0.000  -0.000  -0.009   0.003   0.000  -0.004  -0.000   0.000
  0.002  -0.000  -0.000   0.012   0.000  -0.002   0.000  -0.000  -0.010   0.000   0.000  -0.000   0.000  -0.000  -0.007  -0.000


------------------------ aborting loop because EDIFF is reached ----------------------------------------



 DIPCOR: dipole corrections for dipol
 direction  3 min pos    11,
 dipolmoment           0.000000      0.000000      0.023040 electrons x Angstroem
 Tr[quadrupol]      -943.528196

 energy correction for charged system         0.000000 eV
 dipol+quadrupol energy correction            0.000058 eV
 added-field ion interaction          0.000000 eV  (added to PSCEN)

 
  *************** adding dipol energy to TOTEN NOW **************** 
    CHARGE:  cpu time    0.3669: real time    0.3678
    FORLOC:  cpu time    0.0033: real time    0.0033
    FORNL :  cpu time    4.2980: real time    4.3083
    STRESS:  cpu time   12.8393: real time   12.8734
    FORCOR:  cpu time    0.0210: real time    0.0213
    FORHAR:  cpu time    0.0068: real time    0.0069
    MIXING:  cpu time    0.0022: real time    0.0022
    OFIELD:  cpu time    0.0000: real time    0.0000

  FORCE on cell =-STRESS in cart. coord.  units (eV):
  Direction    XX          YY          ZZ          XY          YZ          ZX
  --------------------------------------------------------------------------------------
  Alpha Z   303.52544   303.52544   303.52544
  Ewald  107332.18864107332.18260************    -0.00523    -0.00000    -0.00000
  Hartree109641.09314109641.11251************     0.01678    -0.03916     0.06782
  E(xc)    -709.68782  -709.69272  -714.43110    -0.00417     0.00816    -0.01414
  Local  ************************222317.07917    -0.09591     0.17751    -0.30755
  n-local    62.64055    55.74712    42.13429     1.98695    -0.40614    -0.27535
  augment   834.46296   834.50607   862.16553     0.03574    -0.06139     0.10613
  Kinetic  2284.56911  2279.82007  2353.06721     1.47428    -0.59629    -0.05013
  Fock        0.00000     0.00000     0.00000     0.00000     0.00000     0.00000
  -------------------------------------------------------------------------------------
  Total     -11.26292   -11.23754    -0.55402     0.02198    -0.02553     0.04422
  in kB     -21.89610   -21.84677    -1.07707     0.04272    -0.04963     0.08597
  external pressure =      -14.94 kB  Pullay stress =        0.00 kB


 VOLUME and BASIS-vectors are now :
 -----------------------------------------------------------------------------
  energy-cutoff  :      350.00
  volume of cell :      824.13
      direct lattice vectors                 reciprocal lattice vectors
     5.557859300  0.000000000  0.000000000     0.179925390 -0.103879972  0.000000000
     2.778929650  4.813247345  0.000000000     0.000000000  0.207759944  0.000000000
     0.000000000  0.000000000 30.806959674     0.000000000  0.000000000  0.032460198

  length of vectors
     5.557859300  5.557859300 30.806959674     0.207759944  0.207759944  0.032460198


 FORCES acting on ions
    electron-ion (+dipol)            ewald-force                    non-local-force                 convergence-correction
 -----------------------------------------------------------------------------------------------
   -.199E-02 0.115E-02 0.309E+04   -.957E-12 -.635E-12 -.309E+04   -.144E-01 0.832E-02 -.404E+00   -.474E-03 0.273E-03 -.459E-01
   0.892E-02 0.587E-01 0.281E+04   -.972E-12 -.565E-12 -.281E+04   0.102E-01 -.473E-01 -.106E+01   0.447E-03 -.309E-02 -.411E-01
   0.513E-01 -.296E-01 0.281E+04   -.959E-12 -.571E-12 -.281E+04   -.598E-01 0.345E-01 -.106E+01   -.291E-02 0.168E-02 -.419E-01
   -.464E-01 -.371E-01 0.281E+04   -.931E-12 -.600E-12 -.281E+04   0.461E-01 0.148E-01 -.106E+01   0.290E-02 0.116E-02 -.411E-01
   -.477E+01 -.305E+01 0.895E+03   0.489E+01 0.310E+01 -.894E+03   0.132E-01 0.240E-01 -.294E+00   0.187E-02 0.309E-02 -.236E+00
   0.477E+01 -.275E+01 0.896E+03   -.489E+01 0.282E+01 -.895E+03   -.196E-01 0.113E-01 -.407E+00   -.192E-02 0.111E-02 -.232E+00
   0.257E+00 0.565E+01 0.895E+03   -.242E+00 -.578E+01 -.894E+03   -.141E-01 -.235E-01 -.294E+00   -.174E-02 -.316E-02 -.236E+00
   -.254E+00 0.147E+00 0.900E+03   0.242E+00 -.140E+00 -.899E+03   0.162E-01 -.933E-02 -.231E+00   0.177E-02 -.102E-02 -.238E+00
   -.460E+01 -.296E+01 -.100E+04   0.479E+01 0.305E+01 0.100E+04   -.346E-01 -.527E-02 0.362E+00   -.190E-01 -.536E-02 -.421E+00
   0.459E+01 -.265E+01 -.100E+04   -.479E+01 0.277E+01 0.100E+04   0.375E-01 -.216E-01 0.260E+00   0.190E-01 -.109E-01 -.416E+00
   0.261E+00 0.546E+01 -.100E+04   -.247E+00 -.568E+01 0.100E+04   -.128E-01 0.326E-01 0.362E+00   -.486E-02 0.191E-01 -.421E+00
   -.262E+00 0.151E+00 -.999E+03   0.247E+00 -.142E+00 0.998E+03   0.970E-02 -.560E-02 0.405E+00   0.484E-02 -.280E-02 -.400E+00
   0.311E-01 -.180E-01 -.285E+04   0.975E-12 0.550E-12 0.285E+04   -.443E-01 0.256E-01 0.662E+00   -.221E-02 0.128E-02 -.196E+00
   -.373E-01 -.467E-01 -.285E+04   0.920E-12 0.536E-12 0.285E+04   0.643E-01 0.226E-01 0.686E+00   0.221E-02 -.415E-03 -.194E+00
   0.218E-01 0.556E-01 -.285E+04   0.956E-12 0.521E-12 0.285E+04   0.126E-01 -.669E-01 0.686E+00   0.147E-02 -.171E-02 -.194E+00
   -.171E-01 0.990E-02 -.256E+04   0.826E-12 0.481E-12 0.256E+04   -.205E-01 0.118E-01 0.119E+00   -.132E-02 0.764E-03 -.183E+00
 -----------------------------------------------------------------------------------------------
   0.103E-01 -.597E-02 0.482E+01   0.224E-13 0.224E-13 0.909E-12   -.104E-01 0.599E-02 -.128E+01   0.324E-04 -.187E-04 -.354E+01
 
 
 POSITION                                       TOTAL-FORCE (eV/Angst)
 -----------------------------------------------------------------------------------
      0.00000      0.00000     12.00000        -0.016875      0.009743     -1.160523
      2.77893      0.00000     12.00000         0.019613      0.008333      0.064155
      1.38946      2.40662     12.00000        -0.011404      0.006584      0.058496
      4.16839      2.40662     12.00000         0.002590     -0.021152      0.064155
      1.38946      0.80221     14.31554         0.137616      0.080679      0.195815
      4.16839      0.80221     14.31554        -0.138426      0.079920      0.409622
      2.77893      3.20883     14.31554        -0.001062     -0.159519      0.195815
      5.55786      3.20883     14.31554         0.005889     -0.003400     -0.070908
      5.55786      1.60442     16.61120         0.138127      0.083911      0.301717
      2.77893      1.60442     16.61120        -0.142483      0.082263      0.578012
      6.94732      4.01104     16.61120        -0.003606     -0.161577      0.301717
      4.16839      4.01104     16.61120        -0.000675      0.000390     -0.029107
      0.00000      0.00000     18.94198        -0.015375      0.008877      0.067850
      2.77893      0.00000     18.94198         0.029210     -0.024493      0.082490
      4.16839      2.40662     18.94198         0.035816     -0.013050      0.082490
      1.38946      2.40662     18.94198        -0.038955      0.022491     -1.141797
 -----------------------------------------------------------------------------------
    total drift:                                0.000003     -0.000001      0.000664


--------------------------------------------------------------------------------------------------------



  FREE ENERGIE OF THE ION-ELECTRON SYSTEM (eV)
  ---------------------------------------------------
  free  energy   TOTEN  =       -92.00982046 eV

  energy  without entropy=      -91.96960844  energy(sigma->0) =      -91.99641645
 


--------------------------------------------------------------------------------------------------------


    POTLOK:  cpu time    0.0212: real time    0.0213


--------------------------------------------------------------------------------------------------------


     LOOP+:  cpu time  391.1022: real time  392.1958
    4ORBIT:  cpu time    0.0000: real time    0.0000

 total amount of memory used by VASP MPI-rank0   362189. kBytes
=======================================================================

   base      :      30000. kBytes
   nonl-proj :     280273. kBytes
   fftplans  :       2015. kBytes
   grid      :       7641. kBytes
   one-center:        248. kBytes
   wavefun   :      42012. kBytes
 
  
  
 General timing and accounting informations for this job:
 ========================================================
  
                  Total CPU time used (sec):      396.359
                            User time (sec):      395.085
                          System time (sec):        1.274
                         Elapsed time (sec):      397.652
  
                   Maximum memory used (kb):      424696.
                   Average memory used (kb):           0.
  
                          Minor page faults:        98286
                          Major page faults:            0
                 Voluntary context switches:          813
